% Model:              Geometry_altered.mph
% Version:            COMSOL 6.1.0.357
% Date:               Jun 7 2023, 14:35
% Dimension:          3
% Nodes:              29
% Elements:           28
% Expressions:        300
% Description:        Frequency, , Strain tensor, ZZ-component
% Length unit:        m
% Coordinates
-1.0E-7                   0                        -1.8999999999999998E-6
-8.484517961934519E-8     0                        -1.8999999999999998E-6
-8.185293992835125E-8     0                        -1.8999999999999998E-6
-7.969752758297733E-8     0                        -1.8999999999999998E-6
-7.483360386224138E-8     0                        -1.8999999999999998E-6
-7.280090729528517E-8     0                        -1.8999999999999998E-6
-5.651212548893936E-8     0                        -1.8999999999999998E-6
-4.9744163351254115E-8    0                        -1.8999999999999998E-6
-6.895085965784661E-8     0                        -1.8999999999999998E-6
-4.5577442231553324E-8    0                        -1.8999999999999998E-6
-3.429401637531775E-8     0                        -1.8999999999999998E-6
-3.3852596586013004E-8    0                        -1.8999999999999998E-6
-3.5576193029949814E-8    0                        -1.8999999999999998E-6
-6.3918005802730605E-9    0                        -1.8999999999999998E-6
-4.2727094587053104E-9    0                        -1.8999999999999998E-6
2.7063070700835204E-8     0                        -1.8999999999999998E-6
3.5065180948749965E-8     0                        -1.8999999999999998E-6
5.6379114512029585E-9     0                        -1.8999999999999998E-6
3.7807447943853534E-8     0                        -1.8999999999999998E-6
3.784094579561516E-8      0                        -1.8999999999999998E-6
3.843048096549228E-9      0                        -1.8999999999999998E-6
6.545427063373811E-10     0                        -1.8999999999999998E-6
6.39405246815143E-8       0                        -1.8999999999999998E-6
6.733634884865226E-8      0                        -1.8999999999999998E-6
6.370831696441048E-8      0                        -1.8999999999999998E-6
7.092553333497998E-8      0                        -1.8999999999999998E-6
7.109068320857248E-8      0                        -1.8999999999999998E-6
8.47767466831985E-8       0                        -1.8999999999999998E-6
9.999999999999998E-8      0                        -1.8999999999999998E-6
% Elements (lines)
1          2
3          4
2          3
4          5
5          6
7          8
9          7
6          9
8          10
11         12
10         13
13         11
12         14
14         15
16         17
18         16
17         19
19         20
21         18
15         22
22         21
23         24
25         23
20         25
24         26
26         27
27         28
28         29
% Data (freq (Hz) @ lambda=1)
1704764.5281247874
1704764.5281247874
1704764.5281247874
1704764.5281247874
1704764.5281247874
1704764.5281247874
1704764.5281247874
1704764.5281247874
1704764.5281247874
1704764.5281247874
1704764.5281247874
1704764.5281247874
1704764.5281247874
1704764.5281247874
1704764.5281247874
1704764.5281247874
1704764.5281247874
1704764.5281247874
1704764.5281247874
1704764.5281247874
1704764.5281247874
1704764.5281247874
1704764.5281247874
1704764.5281247874
1704764.5281247874
1704764.5281247874
1704764.5281247874
1704764.5281247874
1704764.5281247874
% Data (bottom-r_bottom (m) @ lambda=1)
-1.0000000000000001E-7
-8.484517961934517E-8
-8.185293992835126E-8
-7.969752758297733E-8
-7.483360386224138E-8
-7.280090729528517E-8
-5.651212548893935E-8
-4.9744163351254115E-8
-6.89508596578466E-8
-4.5577442231553324E-8
-3.429401637531775E-8
-3.3852596586013004E-8
-3.5576193029949814E-8
-6.3918005802730605E-9
-4.2727094587053104E-9
2.7063070700835204E-8
3.5065180948749965E-8
5.6379114512029585E-9
3.7807447943853534E-8
3.784094579561516E-8
3.843048096549228E-9
6.545427063373811E-10
6.39405246815143E-8
6.733634884865226E-8
6.370831696441048E-8
7.092553333497998E-8
7.109068320857248E-8
8.47767466831985E-8
9.999999999999998E-8
% Data (solid.eZZ (1) @ lambda=1)
1.2278447433804538E-8
1.044695003373371E-8
1.0090228802552908E-8
9.831894940416537E-9
9.288128987226818E-9
9.041247824424851E-9
7.087040452853312E-9
6.264983017340688E-9
8.581705659675192E-9
5.744806876638903E-9
4.343936103923578E-9
4.2909968967581E-9
4.504412604573096E-9
8.15131945243211E-10
5.453992904473407E-10
-3.43604039823778E-9
-4.448434521288964E-9
-7.048874872084378E-10
-4.786359425766971E-9
-4.790480800776935E-9
-4.733721312072321E-10
-8.14752256455654E-11
-8.003062274936464E-9
-8.389521627165519E-9
-7.97447359174054E-9
-8.821687235818854E-9
-8.841358591666001E-9
-1.0450962340856335E-8
-1.2274229678971319E-8
% Data (freq (Hz) @ lambda=2)
1704766.3344140055
1704766.3344140055
1704766.3344140055
1704766.3344140055
1704766.3344140055
1704766.3344140055
1704766.3344140055
1704766.3344140055
1704766.3344140055
1704766.3344140055
1704766.3344140055
1704766.3344140055
1704766.3344140055
1704766.3344140055
1704766.3344140055
1704766.3344140055
1704766.3344140055
1704766.3344140055
1704766.3344140055
1704766.3344140055
1704766.3344140055
1704766.3344140055
1704766.3344140055
1704766.3344140055
1704766.3344140055
1704766.3344140055
1704766.3344140055
1704766.3344140055
1704766.3344140055
% Data (bottom-r_bottom (m) @ lambda=2)
-1.0000000000000001E-7
-8.484517961934517E-8
-8.185293992835126E-8
-7.969752758297733E-8
-7.483360386224138E-8
-7.280090729528517E-8
-5.651212548893935E-8
-4.9744163351254115E-8
-6.89508596578466E-8
-4.5577442231553324E-8
-3.429401637531775E-8
-3.3852596586013004E-8
-3.5576193029949814E-8
-6.3918005802730605E-9
-4.2727094587053104E-9
2.7063070700835204E-8
3.5065180948749965E-8
5.6379114512029585E-9
3.7807447943853534E-8
3.784094579561516E-8
3.843048096549228E-9
6.545427063373811E-10
6.39405246815143E-8
6.733634884865226E-8
6.370831696441048E-8
7.092553333497998E-8
7.109068320857248E-8
8.47767466831985E-8
9.999999999999998E-8
% Data (solid.eZZ (1) @ lambda=2)
-8.436550570626491E-9
-7.167853831244119E-9
-6.923468161252851E-9
-6.746166148969527E-9
-6.375370845209942E-9
-6.208437048042012E-9
-4.8608250586321576E-9
-4.30456289554251E-9
-5.891495687314594E-9
-3.9548330615422585E-9
-3.0018766308635977E-9
-2.9614556294710598E-9
-3.1091018670245567E-9
-5.579282429262737E-10
-3.8217640227361925E-10
2.3602574342125304E-9
3.0541847743440422E-9
5.009627455240292E-10
3.2881514534030948E-9
3.2910073920776626E-9
3.412647505078681E-10
5.189200457879369E-11
5.501370751640818E-9
5.7641201510512736E-9
5.481697362581495E-9
6.059660080362738E-9
6.073212639546622E-9
7.182771843956423E-9
8.436088952780953E-9
% Data (freq (Hz) @ lambda=3)
4199537.230881776
4199537.230881776
4199537.230881776
4199537.230881776
4199537.230881776
4199537.230881776
4199537.230881776
4199537.230881776
4199537.230881776
4199537.230881776
4199537.230881776
4199537.230881776
4199537.230881776
4199537.230881776
4199537.230881776
4199537.230881776
4199537.230881776
4199537.230881776
4199537.230881776
4199537.230881776
4199537.230881776
4199537.230881776
4199537.230881776
4199537.230881776
4199537.230881776
4199537.230881776
4199537.230881776
4199537.230881776
4199537.230881776
% Data (bottom-r_bottom (m) @ lambda=3)
-1.0000000000000001E-7
-8.484517961934517E-8
-8.185293992835126E-8
-7.969752758297733E-8
-7.483360386224138E-8
-7.280090729528517E-8
-5.651212548893935E-8
-4.9744163351254115E-8
-6.89508596578466E-8
-4.5577442231553324E-8
-3.429401637531775E-8
-3.3852596586013004E-8
-3.5576193029949814E-8
-6.3918005802730605E-9
-4.2727094587053104E-9
2.7063070700835204E-8
3.5065180948749965E-8
5.6379114512029585E-9
3.7807447943853534E-8
3.784094579561516E-8
3.843048096549228E-9
6.545427063373811E-10
6.39405246815143E-8
6.733634884865226E-8
6.370831696441048E-8
7.092553333497998E-8
7.109068320857248E-8
8.47767466831985E-8
9.999999999999998E-8
% Data (solid.eZZ (1) @ lambda=3)
6.4080321696852555E-9
5.454746271670492E-9
5.268618233322966E-9
5.1338978481336816E-9
4.851034463945977E-9
4.721187793078074E-9
3.702978788033939E-9
3.269010911521993E-9
4.48161284732485E-9
2.995778490435345E-9
2.2617568318485807E-9
2.235302533293641E-9
2.346644231801276E-9
4.2398831480168695E-10
2.849295684149105E-10
-1.7941290488620166E-9
-2.323161741700846E-9
-3.598884897400471E-10
-2.498934220588996E-9
-2.5010771222528576E-9
-2.388996831729143E-10
-4.182642971036195E-11
-4.1769911443663835E-9
-4.379235062761008E-9
-4.162078483569049E-9
-4.604676719729686E-9
-4.614931964632592E-9
-5.454022078433437E-9
-6.4051564188962995E-9
% Data (freq (Hz) @ lambda=4)
4199559.898715978
4199559.898715978
4199559.898715978
4199559.898715978
4199559.898715978
4199559.898715978
4199559.898715978
4199559.898715978
4199559.898715978
4199559.898715978
4199559.898715978
4199559.898715978
4199559.898715978
4199559.898715978
4199559.898715978
4199559.898715978
4199559.898715978
4199559.898715978
4199559.898715978
4199559.898715978
4199559.898715978
4199559.898715978
4199559.898715978
4199559.898715978
4199559.898715978
4199559.898715978
4199559.898715978
4199559.898715978
4199559.898715978
% Data (bottom-r_bottom (m) @ lambda=4)
-1.0000000000000001E-7
-8.484517961934517E-8
-8.185293992835126E-8
-7.969752758297733E-8
-7.483360386224138E-8
-7.280090729528517E-8
-5.651212548893935E-8
-4.9744163351254115E-8
-6.89508596578466E-8
-4.5577442231553324E-8
-3.429401637531775E-8
-3.3852596586013004E-8
-3.5576193029949814E-8
-6.3918005802730605E-9
-4.2727094587053104E-9
2.7063070700835204E-8
3.5065180948749965E-8
5.6379114512029585E-9
3.7807447943853534E-8
3.784094579561516E-8
3.843048096549228E-9
6.545427063373811E-10
6.39405246815143E-8
6.733634884865226E-8
6.370831696441048E-8
7.092553333497998E-8
7.109068320857248E-8
8.47767466831985E-8
9.999999999999998E-8
% Data (solid.eZZ (1) @ lambda=4)
9.279382825514058E-9
7.888528407647232E-9
7.619523860028191E-9
7.42445807375296E-9
7.0147643308404E-9
6.8301518497442525E-9
5.350824299210146E-9
4.735745625810702E-9
6.482003302690545E-9
4.348666785311067E-9
3.2957984636522087E-9
3.2531044947499033E-9
3.414865487110255E-9
6.136373182820699E-10
4.195699693629025E-10
-2.5965408693716175E-9
-3.3607922421994468E-9
-5.442559318758065E-10
-3.617548732887665E-9
-3.6206817383441476E-9
-3.683474832172075E-10
-5.7302219777684936E-11
-6.052389092176234E-9
-6.341709491003695E-9
-6.030746233409999E-9
-6.667023178481071E-9
-6.681902334660097E-9
-7.900065091222129E-9
-9.277858411534496E-9
% Data (freq (Hz) @ lambda=5)
7734990.818679757
7734990.818679757
7734990.818679757
7734990.818679757
7734990.818679757
7734990.818679757
7734990.818679757
7734990.818679757
7734990.818679757
7734990.818679757
7734990.818679757
7734990.818679757
7734990.818679757
7734990.818679757
7734990.818679757
7734990.818679757
7734990.818679757
7734990.818679757
7734990.818679757
7734990.818679757
7734990.818679757
7734990.818679757
7734990.818679757
7734990.818679757
7734990.818679757
7734990.818679757
7734990.818679757
7734990.818679757
7734990.818679757
% Data (bottom-r_bottom (m) @ lambda=5)
-1.0000000000000001E-7
-8.484517961934517E-8
-8.185293992835126E-8
-7.969752758297733E-8
-7.483360386224138E-8
-7.280090729528517E-8
-5.651212548893935E-8
-4.9744163351254115E-8
-6.89508596578466E-8
-4.5577442231553324E-8
-3.429401637531775E-8
-3.3852596586013004E-8
-3.5576193029949814E-8
-6.3918005802730605E-9
-4.2727094587053104E-9
2.7063070700835204E-8
3.5065180948749965E-8
5.6379114512029585E-9
3.7807447943853534E-8
3.784094579561516E-8
3.843048096549228E-9
6.545427063373811E-10
6.39405246815143E-8
6.733634884865226E-8
6.370831696441048E-8
7.092553333497998E-8
7.109068320857248E-8
8.47767466831985E-8
9.999999999999998E-8
% Data (solid.eZZ (1) @ lambda=5)
4.0606116254780126E-9
3.457348647132691E-9
3.339541563720419E-9
3.2542991006170337E-9
3.076567024577504E-9
2.9937057356952438E-9
2.3491804087817324E-9
2.070612184007384E-9
2.841963493761302E-9
1.8968078914561622E-9
1.4304863882835915E-9
1.414215261472863E-9
1.4849393929995662E-9
2.6711075986929853E-10
1.81553938866385E-10
-1.13762000674319E-9
-1.473184945604586E-9
-2.2279879491479303E-10
-1.5842399071653173E-9
-1.5855933987184368E-9
-1.4597782940017207E-10
-2.546728725873838E-11
-2.646989770958982E-9
-2.7754204600814946E-9
-2.637546089803277E-9
-2.9180201784938127E-9
-2.92451611141622E-9
-3.4560226118199347E-9
-4.058515511725617E-9
% Data (freq (Hz) @ lambda=6)
7735285.585570937
7735285.585570937
7735285.585570937
7735285.585570937
7735285.585570937
7735285.585570937
7735285.585570937
7735285.585570937
7735285.585570937
7735285.585570937
7735285.585570937
7735285.585570937
7735285.585570937
7735285.585570937
7735285.585570937
7735285.585570937
7735285.585570937
7735285.585570937
7735285.585570937
7735285.585570937
7735285.585570937
7735285.585570937
7735285.585570937
7735285.585570937
7735285.585570937
7735285.585570937
7735285.585570937
7735285.585570937
7735285.585570937
% Data (bottom-r_bottom (m) @ lambda=6)
-1.0000000000000001E-7
-8.484517961934517E-8
-8.185293992835126E-8
-7.969752758297733E-8
-7.483360386224138E-8
-7.280090729528517E-8
-5.651212548893935E-8
-4.9744163351254115E-8
-6.89508596578466E-8
-4.5577442231553324E-8
-3.429401637531775E-8
-3.3852596586013004E-8
-3.5576193029949814E-8
-6.3918005802730605E-9
-4.2727094587053104E-9
2.7063070700835204E-8
3.5065180948749965E-8
5.6379114512029585E-9
3.7807447943853534E-8
3.784094579561516E-8
3.843048096549228E-9
6.545427063373811E-10
6.39405246815143E-8
6.733634884865226E-8
6.370831696441048E-8
7.092553333497998E-8
7.109068320857248E-8
8.47767466831985E-8
9.999999999999998E-8
% Data (solid.eZZ (1) @ lambda=6)
7.885965280981469E-9
6.70513975009884E-9
6.4765846351543346E-9
6.310849391211803E-9
5.962236400608381E-9
5.805126713611599E-9
4.549164966570973E-9
4.025334031430425E-9
5.5093265155555224E-9
3.6963277112319703E-9
2.8000235974117162E-9
2.7642049608285254E-9
2.9014614466646255E-9
5.205596485743325E-10
3.581293757668917E-10
-2.2070157931552624E-9
-2.8569397338787484E-9
-4.6034621519595987E-10
-3.075070235114475E-9
-3.077731565083272E-9
-3.1044280670905534E-10
-4.756462320911604E-11
-5.145394074991303E-9
-5.390842413846674E-9
-5.126991077869638E-9
-5.6670786960374945E-9
-5.679710363322925E-9
-6.714033681071182E-9
-7.884432789610648E-9
% Data (freq (Hz) @ lambda=7)
1.23656254877968E7
1.23656254877968E7
1.23656254877968E7
1.23656254877968E7
1.23656254877968E7
1.23656254877968E7
1.23656254877968E7
1.23656254877968E7
1.23656254877968E7
1.23656254877968E7
1.23656254877968E7
1.23656254877968E7
1.23656254877968E7
1.23656254877968E7
1.23656254877968E7
1.23656254877968E7
1.23656254877968E7
1.23656254877968E7
1.23656254877968E7
1.23656254877968E7
1.23656254877968E7
1.23656254877968E7
1.23656254877968E7
1.23656254877968E7
1.23656254877968E7
1.23656254877968E7
1.23656254877968E7
1.23656254877968E7
1.23656254877968E7
% Data (bottom-r_bottom (m) @ lambda=7)
-1.0000000000000001E-7
-8.484517961934517E-8
-8.185293992835126E-8
-7.969752758297733E-8
-7.483360386224138E-8
-7.280090729528517E-8
-5.651212548893935E-8
-4.9744163351254115E-8
-6.89508596578466E-8
-4.5577442231553324E-8
-3.429401637531775E-8
-3.3852596586013004E-8
-3.5576193029949814E-8
-6.3918005802730605E-9
-4.2727094587053104E-9
2.7063070700835204E-8
3.5065180948749965E-8
5.6379114512029585E-9
3.7807447943853534E-8
3.784094579561516E-8
3.843048096549228E-9
6.545427063373811E-10
6.39405246815143E-8
6.733634884865226E-8
6.370831696441048E-8
7.092553333497998E-8
7.109068320857248E-8
8.47767466831985E-8
9.999999999999998E-8
% Data (solid.eZZ (1) @ lambda=7)
-2.268071943438074E-9
-1.9322504478013886E-9
-1.8665697292072474E-9
-1.8190955046511748E-9
-1.7217762997635325E-9
-1.6746927130702035E-9
-1.3153784740586465E-9
-1.1551709663028636E-9
-1.5900614632537905E-9
-1.0568751606377566E-9
-7.949536368214271E-10
-7.865328624987167E-10
-8.262798023984775E-10
-1.4763690408229802E-10
-1.017602747802799E-10
6.362495403782331E-10
8.240331073498212E-10
1.1765845608811575E-10
8.855795532212641E-10
8.863291222264519E-10
7.47309279259298E-11
1.350524320848034E-11
1.4778761608261116E-9
1.5502546553836332E-9
1.4726142871701008E-9
1.6297262390127222E-9
1.6333541832120248E-9
1.9301153235419078E-9
2.266513104330947E-9
% Data (freq (Hz) @ lambda=8)
1.236715444579007E7
1.236715444579007E7
1.236715444579007E7
1.236715444579007E7
1.236715444579007E7
1.236715444579007E7
1.236715444579007E7
1.236715444579007E7
1.236715444579007E7
1.236715444579007E7
1.236715444579007E7
1.236715444579007E7
1.236715444579007E7
1.236715444579007E7
1.236715444579007E7
1.236715444579007E7
1.236715444579007E7
1.236715444579007E7
1.236715444579007E7
1.236715444579007E7
1.236715444579007E7
1.236715444579007E7
1.236715444579007E7
1.236715444579007E7
1.236715444579007E7
1.236715444579007E7
1.236715444579007E7
1.236715444579007E7
1.236715444579007E7
% Data (bottom-r_bottom (m) @ lambda=8)
-1.0000000000000001E-7
-8.484517961934517E-8
-8.185293992835126E-8
-7.969752758297733E-8
-7.483360386224138E-8
-7.280090729528517E-8
-5.651212548893935E-8
-4.9744163351254115E-8
-6.89508596578466E-8
-4.5577442231553324E-8
-3.429401637531775E-8
-3.3852596586013004E-8
-3.5576193029949814E-8
-6.3918005802730605E-9
-4.2727094587053104E-9
2.7063070700835204E-8
3.5065180948749965E-8
5.6379114512029585E-9
3.7807447943853534E-8
3.784094579561516E-8
3.843048096549228E-9
6.545427063373811E-10
6.39405246815143E-8
6.733634884865226E-8
6.370831696441048E-8
7.092553333497998E-8
7.109068320857248E-8
8.47767466831985E-8
9.999999999999998E-8
% Data (solid.eZZ (1) @ lambda=8)
-7.397096529441615E-9
-6.290577193617756E-9
-6.076285981674726E-9
-5.920897620350067E-9
-5.5940113340932935E-9
-5.446316774852411E-9
-4.269386137565541E-9
-3.776134492089932E-9
-5.1689191769707124E-9
-3.467370477314692E-9
-2.625103972429181E-9
-2.591993067156244E-9
-2.720624401824275E-9
-4.870240312207458E-10
-3.376136537552707E-10
2.0707232266266633E-9
2.6807984441275926E-9
4.2861589169624454E-10
2.885270406213938E-9
2.8877647048544982E-9
2.8761094640269584E-10
4.331669851604263E-11
4.828030019006734E-9
5.057956185197749E-9
4.810760926445383E-9
5.316785825164007E-9
5.328623072679592E-9
6.298041685415798E-9
7.395407908853824E-9
% Data (freq (Hz) @ lambda=9)
1.8165308902997427E7
1.8165308902997427E7
1.8165308902997427E7
1.8165308902997427E7
1.8165308902997427E7
1.8165308902997427E7
1.8165308902997427E7
1.8165308902997427E7
1.8165308902997427E7
1.8165308902997427E7
1.8165308902997427E7
1.8165308902997427E7
1.8165308902997427E7
1.8165308902997427E7
1.8165308902997427E7
1.8165308902997427E7
1.8165308902997427E7
1.8165308902997427E7
1.8165308902997427E7
1.8165308902997427E7
1.8165308902997427E7
1.8165308902997427E7
1.8165308902997427E7
1.8165308902997427E7
1.8165308902997427E7
1.8165308902997427E7
1.8165308902997427E7
1.8165308902997427E7
1.8165308902997427E7
% Data (bottom-r_bottom (m) @ lambda=9)
-1.0000000000000001E-7
-8.484517961934517E-8
-8.185293992835126E-8
-7.969752758297733E-8
-7.483360386224138E-8
-7.280090729528517E-8
-5.651212548893935E-8
-4.9744163351254115E-8
-6.89508596578466E-8
-4.5577442231553324E-8
-3.429401637531775E-8
-3.3852596586013004E-8
-3.5576193029949814E-8
-6.3918005802730605E-9
-4.2727094587053104E-9
2.7063070700835204E-8
3.5065180948749965E-8
5.6379114512029585E-9
3.7807447943853534E-8
3.784094579561516E-8
3.843048096549228E-9
6.545427063373811E-10
6.39405246815143E-8
6.733634884865226E-8
6.370831696441048E-8
7.092553333497998E-8
7.109068320857248E-8
8.47767466831985E-8
9.999999999999998E-8
% Data (solid.eZZ (1) @ lambda=9)
3.2257336208047456E-10
2.771327050933521E-10
2.679316791220131E-10
2.614020518695566E-10
2.5121860673805306E-10
2.4292477750792373E-10
1.92855918044538E-10
1.6134921227309735E-10
2.3118002929543883E-10
1.4451288259846253E-10
1.0458103262045783E-10
1.0471024657895368E-10
1.1085030111394839E-10
1.873870707532951E-11
1.3728562653517556E-11
-9.188982601923076E-11
-1.1916327501348931E-10
-3.864727321961836E-12
-1.269081481758202E-10
-1.2700145463867204E-10
2.0129480352786863E-12
-1.4897170516075118E-12
-2.078886609589153E-10
-2.1982787278863337E-10
-2.0717211500953766E-10
-2.3102735486425416E-10
-2.3154660686627173E-10
-2.737325131179211E-10
-3.215566734708815E-10
% Data (freq (Hz) @ lambda=10)
1.8170103513832822E7
1.8170103513832822E7
1.8170103513832822E7
1.8170103513832822E7
1.8170103513832822E7
1.8170103513832822E7
1.8170103513832822E7
1.8170103513832822E7
1.8170103513832822E7
1.8170103513832822E7
1.8170103513832822E7
1.8170103513832822E7
1.8170103513832822E7
1.8170103513832822E7
1.8170103513832822E7
1.8170103513832822E7
1.8170103513832822E7
1.8170103513832822E7
1.8170103513832822E7
1.8170103513832822E7
1.8170103513832822E7
1.8170103513832822E7
1.8170103513832822E7
1.8170103513832822E7
1.8170103513832822E7
1.8170103513832822E7
1.8170103513832822E7
1.8170103513832822E7
1.8170103513832822E7
% Data (bottom-r_bottom (m) @ lambda=10)
-1.0000000000000001E-7
-8.484517961934517E-8
-8.185293992835126E-8
-7.969752758297733E-8
-7.483360386224138E-8
-7.280090729528517E-8
-5.651212548893935E-8
-4.9744163351254115E-8
-6.89508596578466E-8
-4.5577442231553324E-8
-3.429401637531775E-8
-3.3852596586013004E-8
-3.5576193029949814E-8
-6.3918005802730605E-9
-4.2727094587053104E-9
2.7063070700835204E-8
3.5065180948749965E-8
5.6379114512029585E-9
3.7807447943853534E-8
3.784094579561516E-8
3.843048096549228E-9
6.545427063373811E-10
6.39405246815143E-8
6.733634884865226E-8
6.370831696441048E-8
7.092553333497998E-8
7.109068320857248E-8
8.47767466831985E-8
9.999999999999998E-8
% Data (solid.eZZ (1) @ lambda=10)
7.376716367530835E-9
6.274364791089764E-9
6.0608187771806336E-9
5.9059826311267844E-9
5.580905521866963E-9
5.4331089781944484E-9
4.260603734993085E-9
3.765540362568497E-9
5.15654499019282E-9
3.457277237808738E-9
2.6156854400335894E-9
2.5832347313830606E-9
2.711524689725425E-9
4.838793696214961E-10
3.385976694562239E-10
-2.065787916767203E-9
-2.674667155019354E-9
-4.225198707119185E-10
-2.878328109056724E-9
-2.88081203799283E-9
-2.8151314086817147E-10
-4.160898819654306E-11
-4.816070700500628E-9
-5.04522956137182E-9
-4.798846579668907E-9
-5.302977102151036E-9
-5.3147722177571426E-9
-6.280863384821158E-9
-7.374733981785739E-9
% Data (freq (Hz) @ lambda=11)
2.5159799442167792E7
2.5159799442167792E7
2.5159799442167792E7
2.5159799442167792E7
2.5159799442167792E7
2.5159799442167792E7
2.5159799442167792E7
2.5159799442167792E7
2.5159799442167792E7
2.5159799442167792E7
2.5159799442167792E7
2.5159799442167792E7
2.5159799442167792E7
2.5159799442167792E7
2.5159799442167792E7
2.5159799442167792E7
2.5159799442167792E7
2.5159799442167792E7
2.5159799442167792E7
2.5159799442167792E7
2.5159799442167792E7
2.5159799442167792E7
2.5159799442167792E7
2.5159799442167792E7
2.5159799442167792E7
2.5159799442167792E7
2.5159799442167792E7
2.5159799442167792E7
2.5159799442167792E7
% Data (bottom-r_bottom (m) @ lambda=11)
-1.0000000000000001E-7
-8.484517961934517E-8
-8.185293992835126E-8
-7.969752758297733E-8
-7.483360386224138E-8
-7.280090729528517E-8
-5.651212548893935E-8
-4.9744163351254115E-8
-6.89508596578466E-8
-4.5577442231553324E-8
-3.429401637531775E-8
-3.3852596586013004E-8
-3.5576193029949814E-8
-6.3918005802730605E-9
-4.2727094587053104E-9
2.7063070700835204E-8
3.5065180948749965E-8
5.6379114512029585E-9
3.7807447943853534E-8
3.784094579561516E-8
3.843048096549228E-9
6.545427063373811E-10
6.39405246815143E-8
6.733634884865226E-8
6.370831696441048E-8
7.092553333497998E-8
7.109068320857248E-8
8.47767466831985E-8
9.999999999999998E-8
% Data (solid.eZZ (1) @ lambda=11)
1.3886214241275364E-9
1.1787944128955886E-9
1.1383708763057955E-9
1.1089116061946505E-9
1.0423212214598892E-9
1.0165118807319683E-9
7.949623643391234E-10
7.13149585781035E-10
9.641325514593334E-10
6.586339221048214E-10
5.029768878189028E-10
4.953792239606759E-10
5.187319402947561E-10
9.413324312208959E-11
6.47346851134434E-11
-3.8705459507268066E-10
-5.010965512776644E-10
-9.594809615122489E-11
-5.407179189045396E-10
-5.41202314595757E-10
-6.901777495907007E-11
-8.3886123748459E-12
-9.101432255464592E-10
-9.510399592352433E-10
-9.068556303896797E-10
-9.997292012382896E-10
-1.0019393586702675E-9
-1.1833725678313528E-9
-1.3891498197765561E-9
% Data (freq (Hz) @ lambda=12)
2.5172746668472152E7
2.5172746668472152E7
2.5172746668472152E7
2.5172746668472152E7
2.5172746668472152E7
2.5172746668472152E7
2.5172746668472152E7
2.5172746668472152E7
2.5172746668472152E7
2.5172746668472152E7
2.5172746668472152E7
2.5172746668472152E7
2.5172746668472152E7
2.5172746668472152E7
2.5172746668472152E7
2.5172746668472152E7
2.5172746668472152E7
2.5172746668472152E7
2.5172746668472152E7
2.5172746668472152E7
2.5172746668472152E7
2.5172746668472152E7
2.5172746668472152E7
2.5172746668472152E7
2.5172746668472152E7
2.5172746668472152E7
2.5172746668472152E7
2.5172746668472152E7
2.5172746668472152E7
% Data (bottom-r_bottom (m) @ lambda=12)
-1.0000000000000001E-7
-8.484517961934517E-8
-8.185293992835126E-8
-7.969752758297733E-8
-7.483360386224138E-8
-7.280090729528517E-8
-5.651212548893935E-8
-4.9744163351254115E-8
-6.89508596578466E-8
-4.5577442231553324E-8
-3.429401637531775E-8
-3.3852596586013004E-8
-3.5576193029949814E-8
-6.3918005802730605E-9
-4.2727094587053104E-9
2.7063070700835204E-8
3.5065180948749965E-8
5.6379114512029585E-9
3.7807447943853534E-8
3.784094579561516E-8
3.843048096549228E-9
6.545427063373811E-10
6.39405246815143E-8
6.733634884865226E-8
6.370831696441048E-8
7.092553333497998E-8
7.109068320857248E-8
8.47767466831985E-8
9.999999999999998E-8
% Data (solid.eZZ (1) @ lambda=12)
-7.485983475242699E-9
-6.368169503208573E-9
-6.151676609478587E-9
-5.9947122885489295E-9
-5.666333773888853E-9
-5.51578647198726E-9
-4.326990525982212E-9
-3.820782955897671E-9
-5.235166120420744E-9
-3.507684631667385E-9
-2.6521396362601017E-9
-2.6197276764658915E-9
-2.75004247516611E-9
-4.888065850445851E-10
-3.459158586929545E-10
2.0973130744852817E-9
2.715686593596934E-9
4.231290488926913E-10
2.9220898827949065E-9
2.924606784210224E-9
2.796214211596258E-10
4.030893888031144E-11
4.888676098126492E-9
5.121126078628712E-9
4.871196131780837E-9
5.382220877475022E-9
5.394183185358171E-9
6.374096664007529E-9
7.483705680357301E-9
% Data (freq (Hz) @ lambda=13)
3.3300599482820578E7
3.3300599482820578E7
3.3300599482820578E7
3.3300599482820578E7
3.3300599482820578E7
3.3300599482820578E7
3.3300599482820578E7
3.3300599482820578E7
3.3300599482820578E7
3.3300599482820578E7
3.3300599482820578E7
3.3300599482820578E7
3.3300599482820578E7
3.3300599482820578E7
3.3300599482820578E7
3.3300599482820578E7
3.3300599482820578E7
3.3300599482820578E7
3.3300599482820578E7
3.3300599482820578E7
3.3300599482820578E7
3.3300599482820578E7
3.3300599482820578E7
3.3300599482820578E7
3.3300599482820578E7
3.3300599482820578E7
3.3300599482820578E7
3.3300599482820578E7
3.3300599482820578E7
% Data (bottom-r_bottom (m) @ lambda=13)
-1.0000000000000001E-7
-8.484517961934517E-8
-8.185293992835126E-8
-7.969752758297733E-8
-7.483360386224138E-8
-7.280090729528517E-8
-5.651212548893935E-8
-4.9744163351254115E-8
-6.89508596578466E-8
-4.5577442231553324E-8
-3.429401637531775E-8
-3.3852596586013004E-8
-3.5576193029949814E-8
-6.3918005802730605E-9
-4.2727094587053104E-9
2.7063070700835204E-8
3.5065180948749965E-8
5.6379114512029585E-9
3.7807447943853534E-8
3.784094579561516E-8
3.843048096549228E-9
6.545427063373811E-10
6.39405246815143E-8
6.733634884865226E-8
6.370831696441048E-8
7.092553333497998E-8
7.109068320857248E-8
8.47767466831985E-8
9.999999999999998E-8
% Data (solid.eZZ (1) @ lambda=13)
-2.2072742031613574E-9
-1.8756130318190785E-9
-1.8114345690863117E-9
-1.7647368596177945E-9
-1.6606951687513999E-9
-1.6186658154174508E-9
-1.2675465184388416E-9
-1.1321890462839785E-9
-1.5356156466201985E-9
-1.0437669875351602E-9
-7.941926791679947E-10
-7.830767192251685E-10
-8.203769344893715E-10
-1.4817315146535667E-10
-1.0276790345295359E-10
6.161378300239195E-10
7.978918131542188E-10
1.4442108854240064E-10
8.602554587168374E-10
8.610172004295495E-10
1.0163407399187749E-10
1.2866001887383633E-11
1.4459386545699939E-9
1.5117901638120371E-9
1.4407280854451612E-9
1.5890942599538172E-9
1.592604432262566E-9
1.8806316096271925E-9
2.2075495843205927E-9
% Data (freq (Hz) @ lambda=14)
3.332949192133694E7
3.332949192133694E7
3.332949192133694E7
3.332949192133694E7
3.332949192133694E7
3.332949192133694E7
3.332949192133694E7
3.332949192133694E7
3.332949192133694E7
3.332949192133694E7
3.332949192133694E7
3.332949192133694E7
3.332949192133694E7
3.332949192133694E7
3.332949192133694E7
3.332949192133694E7
3.332949192133694E7
3.332949192133694E7
3.332949192133694E7
3.332949192133694E7
3.332949192133694E7
3.332949192133694E7
3.332949192133694E7
3.332949192133694E7
3.332949192133694E7
3.332949192133694E7
3.332949192133694E7
3.332949192133694E7
3.332949192133694E7
% Data (bottom-r_bottom (m) @ lambda=14)
-1.0000000000000001E-7
-8.484517961934517E-8
-8.185293992835126E-8
-7.969752758297733E-8
-7.483360386224138E-8
-7.280090729528517E-8
-5.651212548893935E-8
-4.9744163351254115E-8
-6.89508596578466E-8
-4.5577442231553324E-8
-3.429401637531775E-8
-3.3852596586013004E-8
-3.5576193029949814E-8
-6.3918005802730605E-9
-4.2727094587053104E-9
2.7063070700835204E-8
3.5065180948749965E-8
5.6379114512029585E-9
3.7807447943853534E-8
3.784094579561516E-8
3.843048096549228E-9
6.545427063373811E-10
6.39405246815143E-8
6.733634884865226E-8
6.370831696441048E-8
7.092553333497998E-8
7.109068320857248E-8
8.47767466831985E-8
9.999999999999998E-8
% Data (solid.eZZ (1) @ lambda=14)
7.625768624585516E-9
6.4875266372417255E-9
6.267223818079062E-9
6.107487914897183E-9
5.774328018787169E-9
5.620587853664929E-9
4.410497548520045E-9
3.891815623609437E-9
5.334714512736925E-9
3.5730227568295685E-9
2.700429458261826E-9
2.667736767096728E-9
2.800602081409563E-9
4.957422072535291E-10
3.550139826969572E-10
-2.1373114330057807E-9
-2.767635258906518E-9
-4.266514550109474E-10
-2.9777363844233137E-9
-2.9802980313168304E-9
-2.800026679042499E-10
-3.9005706081329424E-11
-4.981531509132982E-9