% Model:              thick.mph
% Version:            COMSOL 6.1.0.357
% Date:               Jun 20 2023, 11:30
% Dimension:          3
% Nodes:              70
% Elements:           69
% Expressions:        1400
% Description:        Frequency, , Strain tensor, ZZ-component, Strain tensor, XY-component, Strain tensor, XZ-component, Strain tensor, YZ-component, Displacement field, X-component, Displacement field, Y-component, Displacement field, Z-component, Maximum 1, Maximum 1, Maximum 1, Strain tensor, XX-component, Strain tensor, YY-component
% Length unit:        m
% Coordinates
-8.776747596990316E-8|-1.2293016065118829E-23|2.0000000000000002E-7
-8.522349115918133E-8|-1.2293016065118829E-23|2.0000000000000002E-7
-8.26795063484595E-8|-1.2293016065118829E-23|2.0000000000000002E-7
-8.013552153773764E-8|-2.4586032130237658E-23|2.0000000000000002E-7
-7.759153672701581E-8|-1.2293016065118829E-23|2.0000000000000002E-7
-7.504755191629401E-8|-1.2293016065118829E-23|2.0000000000000002E-7
-7.250356710557218E-8|-1.2293016065118829E-23|2.0000000000000002E-7
-6.995958229485035E-8|-1.2293016065118829E-23|2.0000000000000002E-7
-6.741559748412852E-8|-1.2293016065118829E-23|2.0000000000000002E-7
-6.487161267340666E-8|-1.2293016065118829E-23|2.0000000000000002E-7
-6.232762786268483E-8|-1.2293016065118829E-23|2.0000000000000002E-7
-5.9783643051963E-8|-1.2293016065118829E-23|2.0000000000000002E-7
-5.723965824124117E-8|-1.2293016065118829E-23|2.0000000000000002E-7
-5.469567343051934E-8|-1.2293016065118829E-23|2.0000000000000002E-7
-5.215168861979751E-8|-1.2293016065118829E-23|2.0000000000000002E-7
-4.960770380907568E-8|-1.2293016065118829E-23|2.0000000000000002E-7
-4.706371899835385E-8|-1.2293016065118829E-23|2.0000000000000002E-7
-4.451973418763202E-8|0|2.0000000000000002E-7
-4.1975749376910214E-8|0|2.0000000000000002E-7
-3.943176456618836E-8|-1.2293016065118829E-23|2.0000000000000002E-7
-3.6887779755466527E-8|-1.2293016065118829E-23|2.0000000000000002E-7
-3.4343794944744696E-8|-2.4586032130237658E-23|2.0000000000000002E-7
-3.1799810134022866E-8|-1.2293016065118829E-23|2.0000000000000002E-7
-2.9255825323301036E-8|-1.2293016065118829E-23|2.0000000000000002E-7
-2.6711840512579205E-8|0|2.0000000000000002E-7
-2.4167855701857375E-8|-1.2293016065118829E-23|2.0000000000000002E-7
-2.1623870891135545E-8|-1.2293016065118829E-23|2.0000000000000002E-7
-1.9079886080413714E-8|0|2.0000000000000002E-7
-1.653590126969187E-8|-1.2293016065118829E-23|2.0000000000000002E-7
-1.399191645897004E-8|-1.2293016065118829E-23|2.0000000000000002E-7
-1.1447931648248197E-8|0|2.0000000000000002E-7
-8.90394683752638E-9|0|2.0000000000000002E-7
-6.359962026804563E-9|0|2.0000000000000002E-7
-3.815977216082732E-9|0|2.0000000000000002E-7
-1.271992405360902E-9|0|2.0000000000000002E-7
1.2719924053609416E-9|0|2.0000000000000002E-7
3.815977216082785E-9|0|2.0000000000000002E-7
6.3599620268046155E-9|-1.2293016065118829E-23|2.0000000000000002E-7
8.903946837526446E-9|-1.2293016065118829E-23|2.0000000000000002E-7
1.1447931648248276E-8|-1.2293016065118829E-23|2.0000000000000002E-7
1.3991916458970107E-8|0|2.0000000000000002E-7
1.6535901269691937E-8|1.2293016065118829E-23|2.0000000000000002E-7
1.9079886080413767E-8|1.2293016065118829E-23|2.0000000000000002E-7
2.1623870891135598E-8|1.2293016065118829E-23|2.0000000000000002E-7
2.4167855701857428E-8|0|2.0000000000000002E-7
2.6711840512579258E-8|-1.2293016065118829E-23|2.0000000000000002E-7
2.9255825323301095E-8|0|2.0000000000000002E-7
3.1799810134022925E-8|0|2.0000000000000002E-7
3.4343794944744756E-8|0|2.0000000000000002E-7
3.688777975546658E-8|-1.2293016065118829E-23|2.0000000000000002E-7
3.9431764566188397E-8|-1.2293016065118829E-23|2.0000000000000002E-7
4.197574937691022E-8|0|2.0000000000000002E-7
4.451973418763206E-8|0|2.0000000000000002E-7
4.70637189983539E-8|0|2.0000000000000002E-7
4.960770380907573E-8|-1.2293016065118829E-23|2.0000000000000002E-7
5.215168861979757E-8|0|2.0000000000000002E-7
5.469567343051939E-8|0|2.0000000000000002E-7
5.723965824124122E-8|0|2.0000000000000002E-7
5.978364305196307E-8|0|2.0000000000000002E-7
6.232762786268488E-8|0|2.0000000000000002E-7
6.487161267340671E-8|-1.2293016065118829E-23|2.0000000000000002E-7
6.741559748412853E-8|0|2.0000000000000002E-7
6.995958229485036E-8|0|2.0000000000000002E-7
7.250356710557218E-8|0|2.0000000000000002E-7
7.5047551916294E-8|0|2.0000000000000002E-7
7.759153672701583E-8|0|2.0000000000000002E-7
8.013552153773766E-8|0|2.0000000000000002E-7
8.267950634845949E-8|-1.2293016065118829E-23|2.0000000000000002E-7
8.522349115918132E-8|-1.2293016065118829E-23|2.0000000000000002E-7
8.776747596990316E-8|0|2.0000000000000002E-7
% Elements (lines)
2|1
3|2
4|3
11|10
12|11
13|12
23|22
24|23
25|24
20|19
21|20
22|21
17|16
18|17
19|18
14|13
15|14
16|15
27|28
26|27
25|26
29|28
30|29
31|30
50|49
51|50
52|51
47|46
48|47
49|48
45|46
44|45
43|44
56|55
57|56
58|57
54|55
53|54
52|53
62|61
63|62
64|63
65|64
66|65
67|66
41|40
42|41
43|42
68|67
69|68
70|69
9|10
8|9
7|8
6|7
5|6
4|5
59|58
60|59
61|60
39|40
38|39
37|38
35|34
36|35
37|36
32|31
33|32
34|33
% Data (freq (Hz) @ lambda=1)
1.6750481523133004E7
1.6750481523133004E7
1.6750481523133004E7
1.6750481523133004E7
1.6750481523133004E7
1.6750481523133004E7
1.6750481523133004E7
1.6750481523133004E7
1.6750481523133004E7
1.6750481523133004E7
1.6750481523133004E7
1.6750481523133004E7
1.6750481523133004E7
1.6750481523133004E7
1.6750481523133004E7
1.6750481523133004E7
1.6750481523133004E7
1.6750481523133004E7
1.6750481523133004E7
1.6750481523133004E7
1.6750481523133004E7
1.6750481523133004E7
1.6750481523133004E7
1.6750481523133004E7
1.6750481523133004E7
1.6750481523133004E7
1.6750481523133004E7
1.6750481523133004E7
1.6750481523133004E7
1.6750481523133004E7
1.6750481523133004E7
1.6750481523133004E7
1.6750481523133004E7
1.6750481523133004E7
1.6750481523133004E7
1.6750481523133004E7
1.6750481523133004E7
1.6750481523133004E7
1.6750481523133004E7
1.6750481523133004E7
1.6750481523133004E7
1.6750481523133004E7
1.6750481523133004E7
1.6750481523133004E7
1.6750481523133004E7
1.6750481523133004E7
1.6750481523133004E7
1.6750481523133004E7
1.6750481523133004E7
1.6750481523133004E7
1.6750481523133004E7
1.6750481523133004E7
1.6750481523133004E7
1.6750481523133004E7
1.6750481523133004E7
1.6750481523133004E7
1.6750481523133004E7
1.6750481523133004E7
1.6750481523133004E7
1.6750481523133004E7
1.6750481523133004E7
1.6750481523133004E7
1.6750481523133004E7
1.6750481523133004E7
1.6750481523133004E7
1.6750481523133004E7
1.6750481523133004E7
1.6750481523133004E7
1.6750481523133004E7
1.6750481523133004E7
% Data (bottom2-r_bottom (m) @ lambda=1)
7.553495193980631E-8
7.299096712908448E-8
7.044698231836265E-8
6.790299750764079E-8
6.535901269691896E-8
6.281502788619716E-8
6.02710430754753E-8
5.77270582647535E-8
5.518307345403164E-8
5.263908864330981E-8
5.009510383258798E-8
4.755111902186615E-8
4.500713421114432E-8
4.246314940042249E-8
3.991916458970066E-8
3.737517977897883E-8
3.4831194968257E-8
3.228721015753517E-8
2.9743225346813365E-8
2.7199240536091508E-8
2.4655255725369678E-8
2.2111270914647847E-8
1.9567286103926017E-8
1.7023301293204187E-8
1.4479316482482356E-8
1.1935331671760526E-8
9.391346861038696E-9
6.847362050316865E-9
4.303377239595022E-9
1.7593924288731913E-9
-7.845923818486522E-10
-3.3285771925704693E-9
-5.8725620032922864E-9
-8.416546814014117E-9
-1.0960531624735947E-8
-1.350451643545779E-8
-1.6048501246179634E-8
-1.8592486056901465E-8
-2.1136470867623295E-8
-2.3680455678345125E-8
-2.6224440489066956E-8
-2.8768425299788786E-8
-3.1312410110510616E-8
-3.3856394921232447E-8
-3.640037973195428E-8
-3.894436454267611E-8
-4.148834935339794E-8
-4.403233416411978E-8
-4.6576318974841605E-8
-4.912030378556342E-8
-5.1664288596285246E-8
-5.420827340700706E-8
-5.6752258217728906E-8
-5.929624302845075E-8
-6.18402278391726E-8
-6.438421264989441E-8
-6.692819746061624E-8
-6.947218227133807E-8
-7.20161670820599E-8
-7.456015189278173E-8
-7.710413670350356E-8
-7.964812151422539E-8
-8.219210632494721E-8
-8.473609113566903E-8
-8.728007594639084E-8
-8.982406075711267E-8
-9.23680455678345E-8
-9.491203037855632E-8
-9.745601518927815E-8
-1.0000000000000005E-7
% Data (solid.eZZ (1) @ lambda=1)
1.1568081372019058E-8
1.1232532788082262E-8
1.0896984204159335E-8
1.055966268055831E-8
1.022381277210289E-8
9.887690694623129E-9
9.551577366083278E-9
9.215815131811213E-9
8.879914427026293E-9
8.544075849200406E-9
8.20836698366555E-9
7.872652614046227E-9
7.536938244431987E-9
7.201560845361175E-9
6.866046822368789E-9
6.530739076947517E-9
6.195418637355173E-9
5.86024406188911E-9
5.525086045041757E-9
5.189805934276219E-9
4.854658737289032E-9
4.519705747902066E-9
4.184692551427556E-9
3.849686228113276E-9
3.5149557590734305E-9
3.1800272100671865E-9
2.8451421024900426E-9
2.5103959194751133E-9
2.175536427863384E-9
1.840744625323047E-9
1.5060963560245188E-9
1.1714683942921243E-9
8.367427043743745E-10
5.020170144586892E-10
1.6724048976474802E-10
-1.6748937771626841E-10
-5.020314124309499E-10
-8.368261651918861E-10
-1.1715645472173527E-9
-1.5062144675798116E-9
-1.8409537521581236E-9
-2.1757614005319276E-9
-2.510364887775534E-9
-2.845146448791378E-9
-3.180051543220446E-9
-3.5150429607269857E-9
-3.849853649322508E-9
-4.1848335395835294E-9
-4.519643565666726E-9
-4.8548731300490335E-9
-5.189942762491128E-9
-5.525011107197504E-9
-5.860083285659702E-9
-6.19536913274327E-9
-6.530756903681699E-9
-6.866081501219021E-9
-7.20148113790743E-9
-7.536887050889114E-9
-7.872538275452651E-9
-8.208189500011953E-9
-8.543717424205197E-9
-8.879535279802953E-9
-9.21541637619938E-9
-9.551138717742131E-9
-9.887198920788809E-9
-1.0223250865558172E-8
-1.0559062580619376E-8
-1.0895815122945917E-8
-1.123266357548562E-8
-1.1580287399929343E-8
% Data (solid.eXY (1) @ lambda=1)
5.164766624630741E-11
4.967025296381995E-11
4.769283985751535E-11
4.5826518103799126E-11
4.4577250461383166E-11
4.323646141611573E-11
4.1916893892511575E-11
4.043118766440628E-11
3.898702490221109E-11
3.755744170796004E-11
3.6115529331381864E-11
3.46584849531112E-11
3.3201440507077694E-11
3.17446793958431E-11
3.027731500192501E-11
2.8845646208650044E-11
2.7373205326047495E-11
2.5906681408948383E-11
2.4438354970917553E-11
2.297124139340561E-11
2.1494699160326938E-11
2.0038740821846576E-11
1.857257736818073E-11
1.7090785763614752E-11
1.5601022386392722E-11
1.4121958715807882E-11
1.2638777631618966E-11
1.1168827798377357E-11
9.692283630681842E-12
8.200660324961705E-12
6.7067645382647145E-12
5.22100591926519E-12
3.724673916733684E-12
2.2283420632800028E-12
7.4236500252727E-13
-7.470390633185407E-13
-2.2390248292578074E-12
-3.735586913042842E-12
-5.230707031655393E-12
-6.724568303454262E-12
-8.222470740464829E-12
-9.70824453152414E-12
-1.1223770403185854E-11
-1.2706405209689936E-11
-1.4205902930099169E-11
-1.5688885574797334E-11
-1.7166491717719157E-11
-1.8649703173120396E-11
-2.0150316717938363E-11
-2.1616261145824916E-11
-2.3095415337126764E-11
-2.4580835934835925E-11
-2.604609409258949E-11
-2.752058982291383E-11
-2.8980960236875755E-11
-3.042958664247462E-11
-3.188195699468672E-11
-3.333401520740409E-11
-3.476512934572691E-11
-3.6196243470496996E-11
-3.764279214940949E-11
-3.904596950791855E-11
-4.046845818099192E-11
-4.1912696417800416E-11
-4.3295936273831086E-11
-4.4715812270394034E-11
-4.6110889696912745E-11
-4.702310289333144E-11
-4.807152328381994E-11
-4.333495449418065E-11
% Data (solid.eXZ (1) @ lambda=1)
9.257796198145428E-10
9.275385653106477E-10
9.292975107864237E-10
9.308908539746948E-10
9.323904599162685E-10
9.337179111612619E-10
9.350343803356793E-10
9.361869445203405E-10
9.372962915199864E-10
9.383968275442134E-10
9.394301281090257E-10
9.40446105780264E-10
9.414620835077243E-10
9.423546661770893E-10
9.432580807128895E-10
9.44162167010509E-10
9.44924388748817E-10
9.456839025043695E-10
9.464853133223839E-10
9.47089813381275E-10
9.47726165484908E-10
9.483394269520146E-10
9.488616188842683E-10
9.49374203520442E-10
9.498970367274699E-10
9.502694579873148E-10
9.506371768700613E-10
9.510024057239116E-10
9.512557699515378E-10
9.515242236216625E-10
9.517779349503673E-10
9.519325002377392E-10
9.520234286431388E-10
9.521143571304889E-10
9.521672790787126E-10
9.52171596583204E-10
9.521607354604627E-10
9.52021919271402E-10
9.518993825675907E-10
9.517092704438797E-10
9.515239082843193E-10
9.512696041379012E-10
9.509647940503695E-10
9.506280321801782E-10
9.50244560091752E-10
9.498393779777757E-10
9.493375157739215E-10
9.48828863088406E-10
9.483213067149872E-10
9.476804357951891E-10
9.470669216972237E-10
9.464058056863581E-10
9.456712719294837E-10
9.448892498511685E-10
9.441432525691322E-10
9.432332330290163E-10
9.42359305270133E-10
9.415184625673474E-10
9.404996734543143E-10
9.394808845031704E-10
9.384675701897094E-10
9.373202126826937E-10
9.361721293513455E-10
9.349913857152413E-10
9.337350616999364E-10
9.324791879049835E-10
9.30887047463687E-10
9.296622607181049E-10
9.280888945223739E-10
9.286764139777284E-10
% Data (solid.eYZ (1) @ lambda=1)
8.234072616009915E-10
8.236485996907256E-10
8.238899377423432E-10
8.2430572394596E-10
8.243006247908887E-10
8.244463800460127E-10
8.245878555702914E-10
8.247040169589701E-10
8.248188965194549E-10
8.249093976000149E-10
8.249953985757912E-10
8.250742922561846E-10
8.251531858162993E-10
8.252077486479716E-10
8.252626438535725E-10
8.253255018890674E-10
8.253668056964292E-10
8.254218008982929E-10
8.25488171545327E-10
8.254927814759791E-10
8.255308631013998E-10
8.255566823019939E-10
8.25591182422133E-10
8.256181039068296E-10
8.256569744303617E-10
8.256560186579717E-10
8.256884362551775E-10
8.257118855799815E-10
8.25726381841813E-10
8.257549858387687E-10
8.257475793259267E-10
8.257694215413444E-10
8.257705782852184E-10
8.257717353542472E-10
8.257759516873235E-10
8.257786064920799E-10
8.257766127694338E-10
8.257759561542576E-10
8.257745065954348E-10
8.257351500469386E-10
8.257567814515258E-10
8.257433949555328E-10
8.257358490415024E-10
8.257274451913048E-10
8.257007152262634E-10
8.256784179813583E-10
8.256037193260804E-10
8.255525642721734E-10
8.25527986112384E-10
8.254914201299202E-10
8.254584821732698E-10
8.253806059896161E-10
8.253353310443582E-10
8.252667286651961E-10
8.252211570174257E-10
8.250979747437479E-10
8.250033508353492E-10
8.24947908635988E-10
8.248338997029767E-10
8.247198909580068E-10
8.246523241295623E-10
8.244619085323693E-10
8.2429934673485E-10
8.241249109815073E-10
8.239068615317801E-10
8.236604402317346E-10
8.23251576517958E-10
8.233605708959605E-10
8.231447837141108E-10
8.263361395731211E-10
% Data (u (m) @ lambda=1)
1.905229293303063E-12
1.9052204412105792E-12
1.905211850732266E-12
1.905203521868121E-12
1.9051954557433652E-12
1.905187651234186E-12
1.905180108340582E-12
1.905172826719435E-12
1.9051658063437653E-12
1.905159047213572E-12
1.905152549195023E-12
1.9051463121289054E-12
1.9051403360152204E-12
1.905134620578307E-12
1.9051291657564395E-12
1.905123971549616E-12
1.9051190377273173E-12
1.9051143641746306E-12
1.9051099508915562E-12
1.9051057977090463E-12
1.905101904523067E-12
1.905098271333621E-12
1.905094898005039E-12
1.905091784408182E-12
1.9050889305430513E-12
1.905086336315066E-12
1.9050840016463246E-12
1.905081926536827E-12
1.9050801109608498E-12
1.9050785548313957E-12
1.9050772581484668E-12
1.905076220780523E-12
1.9050754427663637E-12
1.9050749241059895E-12
1.9050746647987413E-12
1.9050746648211483E-12
1.905074924173211E-12
1.9050754428223143E-12
1.905076220831905E-12
1.905077258201983E-12
1.905078554952398E-12
1.9050801111560188E-12
1.9050819268128476E-12
1.9050840018919084E-12
1.9050863365650624E-12
1.9050889308323056E-12
1.905091784753524E-12
1.905094898440484E-12
1.9050982718931882E-12
1.9051019052440386E-12
1.905105798594583E-12
1.9051099519448225E-12
1.9051143653921557E-12
1.9051190391200107E-12
1.9051239731283873E-12
1.9051291676034502E-12
1.905134622629759E-12
1.9051403382073144E-12
1.9051463145173127E-12
1.9051525517148343E-12
1.905159049799884E-12
1.9051658089325248E-12
1.9051728293051973E-12
1.9051801109178998E-12
1.9051876538486526E-12
1.905195458024576E-12
1.9052035234456727E-12
1.905211852057744E-12
1.905220442991439E-12
1.9052292962467604E-12
% Data (v (m) @ lambda=1)
1.6520144478794206E-12
1.6520226161142568E-12
1.6520305422347767E-12
1.652038226240979E-12
1.6520456696999E-12
1.6520528730539302E-12
1.6520598363030697E-12
1.6520665592048266E-12
1.6520730418411735E-12
1.65207928421211E-12
1.6520852863601306E-12
1.652091048288449E-12
1.652096569997065E-12
1.6521018514583179E-12
1.6521068927159204E-12
1.65211169376987E-12
1.6521162546845513E-12
1.6521205754311384E-12
1.652124656009632E-12
1.6521284964484868E-12
1.6521320967525925E-12
1.6521354569219514E-12
1.6521385770188305E-12
1.652141456993813E-12
1.6521440968468996E-12
1.652146496587365E-12
1.6521486562148568E-12
1.6521505757293753E-12
1.6521522552282208E-12
1.6521536946080463E-12
1.6521548938688529E-12
1.6521558530657153E-12
1.6521565721438378E-12
1.6521570511032213E-12
1.6521572900114102E-12
1.652157288828435E-12
1.6521570475542957E-12
1.6521565661770225E-12
1.6521558446946022E-12
1.6521548831070336E-12
1.652153681389074E-12
1.652152239607493E-12
1.6521505577622914E-12
1.6521486357328451E-12
1.6521464735626468E-12
1.6521440712516928E-12
1.6521414288495767E-12
1.6521385463376332E-12
1.6521354237158646E-12
1.6521320609560378E-12
1.652128458067787E-12
1.6521246150511127E-12
1.652120531867954E-12
1.6521162085438484E-12
1.652111645078794E-12
1.6521068414610359E-12
1.6521017977227635E-12
1.652096513863978E-12
1.6520909897886781E-12
1.6520852255723566E-12
1.6520792212150155E-12
1.6520729766699716E-12
1.6520664919044438E-12
1.6520597669184303E-12
1.652052801756222E-12
1.6520455960717668E-12
1.6520381498650672E-12
1.6520304646024086E-12
1.6520225377881465E-12
1.6520143694222818E-12
% Data (w (m) @ lambda=1)
1.1333511780882241E-13
1.1004999216591484E-13
1.0676487391423849E-13
1.0347976305379327E-13
1.0019465620161993E-13
9.690955489705142E-14
9.362445914008772E-14
9.033936839882931E-14
8.705428232184781E-14
8.376920090914321E-14
8.04841240114875E-14
7.719905129935492E-14
7.391398277274547E-14
7.062891819439086E-14
6.734385727693641E-14
6.405880002038208E-14
6.077374626201329E-14
5.748869561180912E-14
5.4203648069769634E-14
5.091860352865577E-14
4.763356156832926E-14
4.434852218879012E-14
4.1063485152572175E-14
3.777845018666778E-14
3.449341729107692E-14
3.120838630433411E-14
2.792335685906926E-14
2.4638328955282382E-14
2.135330239897041E-14
1.8068276887797855E-14
1.478325242176469E-14
1.1498228795672871E-14
8.213205603506453E-15
4.928182845265432E-15
1.6431604569379462E-15
-1.641861942777479E-15
-4.926884353880825E-15
-8.211907026518808E-15
-1.149693022216514E-14
-1.47819539408198E-14
-1.806697843550098E-14
-2.1352004015081412E-14
-2.4637030679561104E-14
-2.7922058709443793E-14
-3.120708825992848E-14
-3.4492119331015114E-14
-3.7777152237299886E-14
-4.1062187277888883E-14
-4.434722445278217E-14
-4.763226396205034E-14
-5.091730608963349E-14
-5.420235083553165E-14
-5.74873984919689E-14
-6.077244925594857E-14
-6.405750312747048E-14
-6.734256049050253E-14
-7.062762151938991E-14
-7.391268621413269E-14
-7.719775470086928E-14
-8.048282749969178E-14
-8.376790461060024E-14
-8.705298598402213E-14
-9.033807219744226E-14
-9.362316325086053E-14
-9.690825923008316E-14
-1.001933602727798E-13
-1.0347846637895062E-13
-1.0676357838082367E-13
-1.100486965275156E-13
-1.1333382081902657E-13
% Data (maxop1(u) (m) @ lambda=1)
3.0999999999999997E-12
3.0999999999999997E-12
3.0999999999999997E-12
3.0999999999999997E-12
3.0999999999999997E-12
3.0999999999999997E-12
3.0999999999999997E-12
3.0999999999999997E-12
3.0999999999999997E-12
3.0999999999999997E-12
3.0999999999999997E-12
3.0999999999999997E-12
3.0999999999999997E-12
3.0999999999999997E-12
3.0999999999999997E-12
3.0999999999999997E-12
3.0999999999999997E-12
3.0999999999999997E-12
3.0999999999999997E-12
3.0999999999999997E-12
3.0999999999999997E-12
3.0999999999999997E-12
3.0999999999999997E-12
3.0999999999999997E-12
3.0999999999999997E-12
3.0999999999999997E-12
3.0999999999999997E-12
3.0999999999999997E-12
3.0999999999999997E-12
3.0999999999999997E-12
3.0999999999999997E-12
3.0999999999999997E-12
3.0999999999999997E-12
3.0999999999999997E-12
3.0999999999999997E-12
3.0999999999999997E-12
3.0999999999999997E-12
3.0999999999999997E-12
3.0999999999999997E-12
3.0999999999999997E-12
3.0999999999999997E-12
3.0999999999999997E-12
3.0999999999999997E-12
3.0999999999999997E-12
3.0999999999999997E-12
3.0999999999999997E-12
3.0999999999999997E-12
3.0999999999999997E-12
3.0999999999999997E-12
3.0999999999999997E-12
3.0999999999999997E-12
3.0999999999999997E-12
3.0999999999999997E-12
3.0999999999999997E-12
3.0999999999999997E-12
3.0999999999999997E-12
3.0999999999999997E-12
3.0999999999999997E-12
3.0999999999999997E-12
3.0999999999999997E-12
3.0999999999999997E-12
3.0999999999999997E-12
3.0999999999999997E-12
3.0999999999999997E-12
3.0999999999999997E-12
3.0999999999999997E-12
3.0999999999999997E-12
3.0999999999999997E-12
3.0999999999999997E-12
3.0999999999999997E-12
% Data (maxop1(v) (m) @ lambda=1)
2.6884450131641714E-12
2.6884450131641714E-12
2.6884450131641714E-12
2.6884450131641714E-12
2.6884450131641714E-12
2.6884450131641714E-12
2.6884450131641714E-12
2.6884450131641714E-12
2.6884450131641714E-12
2.6884450131641714E-12
2.6884450131641714E-12
2.6884450131641714E-12
2.6884450131641714E-12
2.6884450131641714E-12
2.6884450131641714E-12
2.6884450131641714E-12
2.6884450131641714E-12
2.6884450131641714E-12
2.6884450131641714E-12
2.6884450131641714E-12
2.6884450131641714E-12
2.6884450131641714E-12
2.6884450131641714E-12
2.6884450131641714E-12
2.6884450131641714E-12
2.6884450131641714E-12
2.6884450131641714E-12
2.6884450131641714E-12
2.6884450131641714E-12
2.6884450131641714E-12
2.6884450131641714E-12
2.6884450131641714E-12
2.6884450131641714E-12
2.6884450131641714E-12
2.6884450131641714E-12
2.6884450131641714E-12
2.6884450131641714E-12
2.6884450131641714E-12
2.6884450131641714E-12
2.6884450131641714E-12
2.6884450131641714E-12
2.6884450131641714E-12
2.6884450131641714E-12
2.6884450131641714E-12
2.6884450131641714E-12
2.6884450131641714E-12
2.6884450131641714E-12
2.6884450131641714E-12
2.6884450131641714E-12
2.6884450131641714E-12
2.6884450131641714E-12
2.6884450131641714E-12
2.6884450131641714E-12
2.6884450131641714E-12
2.6884450131641714E-12
2.6884450131641714E-12
2.6884450131641714E-12
2.6884450131641714E-12
2.6884450131641714E-12
2.6884450131641714E-12
2.6884450131641714E-12
2.6884450131641714E-12
2.6884450131641714E-12
2.6884450131641714E-12
2.6884450131641714E-12
2.6884450131641714E-12
2.6884450131641714E-12
2.6884450131641714E-12
2.6884450131641714E-12
2.6884450131641714E-12
% Data (maxop1(w) (m) @ lambda=1)
6.03510975366258E-14
6.03510975366258E-14
6.03510975366258E-14
6.03510975366258E-14
6.03510975366258E-14
6.03510975366258E-14
6.03510975366258E-14
6.03510975366258E-14
6.03510975366258E-14
6.03510975366258E-14
6.03510975366258E-14
6.03510975366258E-14
6.03510975366258E-14
6.03510975366258E-14
6.03510975366258E-14
6.03510975366258E-14
6.03510975366258E-14
6.03510975366258E-14
6.03510975366258E-14
6.03510975366258E-14
6.03510975366258E-14
6.03510975366258E-14
6.03510975366258E-14
6.03510975366258E-14
6.03510975366258E-14
6.03510975366258E-14
6.03510975366258E-14
6.03510975366258E-14
6.03510975366258E-14
6.03510975366258E-14
6.03510975366258E-14
6.03510975366258E-14
6.03510975366258E-14
6.03510975366258E-14
6.03510975366258E-14
6.03510975366258E-14
6.03510975366258E-14
6.03510975366258E-14
6.03510975366258E-14
6.03510975366258E-14
6.03510975366258E-14
6.03510975366258E-14
6.03510975366258E-14
6.03510975366258E-14
6.03510975366258E-14
6.03510975366258E-14
6.03510975366258E-14
6.03510975366258E-14
6.03510975366258E-14
6.03510975366258E-14
6.03510975366258E-14
6.03510975366258E-14
6.03510975366258E-14
6.03510975366258E-14
6.03510975366258E-14
6.03510975366258E-14
6.03510975366258E-14
6.03510975366258E-14
6.03510975366258E-14
6.03510975366258E-14
6.03510975366258E-14
6.03510975366258E-14
6.03510975366258E-14
6.03510975366258E-14
6.03510975366258E-14
6.03510975366258E-14
6.03510975366258E-14
6.03510975366258E-14
6.03510975366258E-14
6.03510975366258E-14
% Data (solid.eXX (1) @ lambda=1)
-3.5310350635173876E-9
-3.428198691056753E-9
-3.3253623185690133E-9
-3.2224398194052786E-9
-3.119246991627719E-9
-3.0164100661155706E-9
-2.9136205829596628E-9
-2.810943830617906E-9
-2.708252385264154E-9
-2.6056024552594097E-9
-2.5029796980326356E-9
-2.4004034441046176E-9
-2.2978271900817315E-9
-2.195425604385405E-9
-2.092981971774757E-9
-1.9905610615271962E-9
-1.8882532131633467E-9
-1.7859453646323041E-9
-1.6836502948512885E-9
-1.5814497899699384E-9
-1.4792492848988367E-9
-1.3770941274782698E-9
-1.2749536497619167E-9
-1.1728572359192072E-9
-1.070750565578156E-9
-9.687354866308624E-10
-8.667068725985152E-10
-7.646805109690763E-10
-6.626819109190171E-10
-5.606976054240862E-10
-4.587064915731985E-10
-3.5679892710065724E-10
-2.548510761961578E-10
-1.5290322496639773E-10
-5.096037525368791E-11
5.097799098244398E-11
1.5289747717700183E-10
2.5484796309935623E-10
3.5679844894039546E-10
4.587532474124162E-10
5.607254462346248E-10
6.627123782770934E-10
7.646851138409891E-10
8.667017581051595E-10
9.687440694598629E-10
1.0708183124930049E-9
1.172885968638827E-9
1.2749957541095575E-9
1.3770938543677426E-9
1.4793133518419418E-9
1.5815150997068633E-9
1.683736352788924E-9
1.7860120768898314E-9
1.888324212988689E-9
1.990636349063612E-9
2.093074873591263E-9
2.1954934278467335E-9
2.2979171144221183E-9
2.4004678543489494E-9
2.5030185944384105E-9
2.605562972682069E-9
2.708252277250703E-9
2.8109415816981797E-9
2.913609741552397E-9
3.0163518688672676E-9
3.1190431944031274E-9
3.221978537784739E-9
3.3254022774905755E-9
3.4285167394465434E-9
3.5386489846754403E-9
% Data (solid.eYY (1) @ lambda=1)
-3.6413201756147276E-9
-3.5349721381149318E-9
-3.4286241004525056E-9
-3.32239149332305E-9
-3.216809129236598E-9
-3.111202193767891E-9
-3.0056025164363807E-9
-2.900048722757724E-9
-2.7944522782460783E-9
-2.68885765782325E-9
-2.5832980443370526E-9
-2.4777410758162425E-9
-2.3721841074851677E-9
-2.2666715916179155E-9
-2.161153093409115E-9
-2.055652256992631E-9
-1.9501671033945346E-9
-1.8446970696578326E-9
-1.7392260671968601E-9
-1.6337578921541223E-9
-1.5283049470922512E-9
-1.4228607905612811E-9
-1.317420890308257E-9
-1.211984592601554E-9
-1.1065935689210781E-9
-1.001161296741845E-9
-8.957487627342126E-10
-7.903428478350533E-10
-6.849381128731123E-10
-5.79543029126551E-10
-4.74175938233257E-10
-3.6878574545822047E-10
-2.633964529911161E-10
-1.580071604969067E-10
-5.2613769894668816E-11
5.276892041817388E-11
1.581417792399266E-10
2.6352642344771443E-10
3.6890613846585034E-10
4.743010605172101E-10
5.796960259366567E-10
6.850792927740046E-10
7.904334925608674E-10
8.958293712683831E-10
1.0012361087720595E-9
1.106644849867798E-9
1.2120736379091397E-9
1.3174929198826735E-9
1.4228962783415303E-9
1.5283265331322152E-9
1.6337478247964484E-9
1.7391779423949275E-9
1.8446320103988542E-9
1.9500849044828787E-9
2.0555317779651344E-9
2.1610386068720753E-9
2.26651951018759E-9
2.371990436098731E-9
2.4775295754298106E-9
2.58306871459826E-9
2.6885749077900332E-9
2.7941373135576333E-9
2.8997283874196075E-9
3.0053012034357467E-9
3.110903704222636E-9
3.2165794552636157E-9
3.3222266551820832E-9
3.427891010973601E-9
3.5338749734380864E-9
3.649787962633176E-9
% Data (freq (Hz) @ lambda=2)
1.6750880967455449E7
1.6750880967455449E7
1.6750880967455449E7
1.6750880967455449E7
1.6750880967455449E7
1.6750880967455449E7
1.6750880967455449E7
1.6750880967455449E7
1.6750880967455449E7
1.6750880967455449E7
1.6750880967455449E7
1.6750880967455449E7
1.6750880967455449E7
1.6750880967455449E7
1.6750880967455449E7
1.6750880967455449E7
1.6750880967455449E7
1.6750880967455449E7
1.6750880967455449E7
1.6750880967455449E7
1.6750880967455449E7
1.6750880967455449E7
1.6750880967455449E7
1.6750880967455449E7
1.6750880967455449E7
1.6750880967455449E7
1.6750880967455449E7
1.6750880967455449E7
1.6750880967455449E7
1.6750880967455449E7
1.6750880967455449E7
1.6750880967455449E7
1.6750880967455449E7
1.6750880967455449E7
1.6750880967455449E7
1.6750880967455449E7
1.6750880967455449E7
1.6750880967455449E7
1.6750880967455449E7
1.6750880967455449E7
1.6750880967455449E7
1.6750880967455449E7
1.6750880967455449E7
1.6750880967455449E7
1.6750880967455449E7
1.6750880967455449E7
1.6750880967455449E7
1.6750880967455449E7
1.6750880967455449E7
1.6750880967455449E7
1.6750880967455449E7
1.6750880967455449E7
1.6750880967455449E7
1.6750880967455449E7
1.6750880967455449E7
1.6750880967455449E7
1.6750880967455449E7
1.6750880967455449E7
1.6750880967455449E7
1.6750880967455449E7
1.6750880967455449E7
1.6750880967455449E7
1.6750880967455449E7
1.6750880967455449E7
1.6750880967455449E7
1.6750880967455449E7
1.6750880967455449E7
1.6750880967455449E7
1.6750880967455449E7
1.6750880967455449E7
% Data (bottom2-r_bottom (m) @ lambda=2)
7.553495193980631E-8
7.299096712908448E-8
7.044698231836265E-8
6.790299750764079E-8
6.535901269691896E-8
6.281502788619716E-8
6.02710430754753E-8
5.77270582647535E-8
5.518307345403164E-8
5.263908864330981E-8
5.009510383258798E-8
4.755111902186615E-8
4.500713421114432E-8
4.246314940042249E-8
3.991916458970066E-8
3.737517977897883E-8
3.4831194968257E-8
3.228721015753517E-8
2.9743225346813365E-8
2.7199240536091508E-8
2.4655255725369678E-8
2.2111270914647847E-8
1.9567286103926017E-8
1.7023301293204187E-8
1.4479316482482356E-8
1.1935331671760526E-8
9.391346861038696E-9
6.847362050316865E-9
4.303377239595022E-9
1.7593924288731913E-9
-7.845923818486522E-10
-3.3285771925704693E-9
-5.8725620032922864E-9
-8.416546814014117E-9
-1.0960531624735947E-8
-1.350451643545779E-8
-1.6048501246179634E-8
-1.8592486056901465E-8
-2.1136470867623295E-8
-2.3680455678345125E-8
-2.6224440489066956E-8
-2.8768425299788786E-8
-3.1312410110510616E-8
-3.3856394921232447E-8
-3.640037973195428E-8
-3.894436454267611E-8
-4.148834935339794E-8
-4.403233416411978E-8
-4.6576318974841605E-8
-4.912030378556342E-8
-5.1664288596285246E-8
-5.420827340700706E-8
-5.6752258217728906E-8
-5.929624302845075E-8