% Model:              hourglass.mph
% Version:            COMSOL 6.1.0.357
% Date:               Jun 12 2023, 15:44
% Dimension:          3
% Nodes:              91
% Elements:           90
% Expressions:        900
% Description:        Displacement field, X-component, Displacement field, Y-component, Displacement field, Z-component, Strain tensor, ZZ-component, Strain tensor, XY-component, Strain tensor, YZ-component, Strain tensor, XZ-component, , Frequency
% Length unit:        m
% Coordinates
-9.286051282051284E-7|0|-5.8399999999999997E-5
-9.195003653166604E-7|0|-5.8399999999999997E-5
-9.173039240899489E-7|0|-5.8399999999999997E-5
-9.135500317467377E-7|0|-5.8399999999999997E-5
-8.421727239202919E-7|0|-5.8399999999999997E-5
-8.078370727766467E-7|0|-5.8399999999999997E-5
-7.890064917346568E-7|0|-5.8399999999999997E-5
-7.675296739322227E-7|0|-5.8399999999999997E-5
-7.646910301416515E-7|0|-5.8399999999999997E-5
-7.582157792373583E-7|0|-5.8399999999999997E-5
-7.259324610627893E-7|0|-5.8399999999999997E-5
-7.001215042925576E-7|0|-5.8399999999999997E-5
-6.998998129941588E-7|0|-5.8399999999999997E-5
-6.759972414487876E-7|0|-5.8399999999999997E-5
-6.754147486673052E-7|0|-5.8399999999999997E-5
-6.694282711999066E-7|0|-5.8399999999999997E-5
-6.34299874625851E-7|0|-5.8399999999999997E-5
-6.269709604667352E-7|0|-5.8399999999999997E-5
-6.104879194872292E-7|0|-5.8399999999999997E-5
-5.927085058552052E-7|0|-5.8399999999999997E-5
-5.919246849849527E-7|0|-5.8399999999999997E-5
-5.766654794979325E-7|0|-5.8399999999999997E-5
-5.603610035134169E-7|0|-5.8399999999999997E-5
-5.494340217079927E-7|0|-5.8399999999999997E-5
-5.430076444224683E-7|0|-5.8399999999999997E-5
-5.197596983561623E-7|0|-5.8399999999999997E-5
-4.778838800236533E-7|0|-5.8399999999999997E-5
-4.775128362000712E-7|0|-5.8399999999999997E-5
-4.394865630085842E-7|0|-5.8399999999999997E-5
-4.0332144439210435E-7|0|-5.8399999999999997E-5
-3.93966820339059E-7|0|-5.8399999999999997E-5
-3.847325949992406E-7|0|-5.8399999999999997E-5
-2.9965543280996E-7|0|-5.8399999999999997E-5
-2.697356410124565E-7|0|-5.8399999999999997E-5
-2.661537803475208E-7|0|-5.8399999999999997E-5
-2.2859194211452903E-7|0|-5.8399999999999997E-5
-2.2670508507829433E-7|0|-5.8399999999999997E-5
-2.1197148721428224E-7|0|-5.8399999999999997E-5
-1.8886200656721935E-7|0|-5.8399999999999997E-5
-1.6262522359920228E-7|0|-5.8399999999999997E-5
-1.599612629267861E-7|0|-5.8399999999999997E-5
-1.5625722787039364E-7|0|-5.8399999999999997E-5
-1.343895695290285E-7|0|-5.8399999999999997E-5
-7.345591768856418E-8|0|-5.8399999999999997E-5
-4.993940294815739E-8|0|-5.8399999999999997E-5
-3.045323886040194E-8|0|-5.8399999999999997E-5
-1.1406818117822143E-8|0|-5.8399999999999997E-5
-1.6398843645774425E-9|0|-5.8399999999999997E-5
6.37352726876805E-8|0|-5.8399999999999997E-5
7.018594247705077E-8|0|-5.8399999999999997E-5
1.103363999851327E-7|0|-5.8399999999999997E-5
1.2952958309722937E-7|0|-5.8399999999999997E-5
1.3423328482729417E-7|0|-5.8399999999999997E-5
1.8253280341087804E-7|0|-5.8399999999999997E-5
2.267570935276508E-7|0|-5.8399999999999997E-5
2.747951090052308E-7|0|-5.8399999999999997E-5
2.792704336650273E-7|0|-5.8399999999999997E-5
2.9786995320359093E-7|0|-5.8399999999999997E-5
3.1782797139347474E-7|0|-5.8399999999999997E-5
3.231487989674675E-7|0|-5.8399999999999997E-5
3.332781385091956E-7|0|-5.8399999999999997E-5
4.065599563711918E-7|0|-5.8399999999999997E-5
4.2800185886715743E-7|0|-5.8399999999999997E-5
4.374433999673628E-7|0|-5.8399999999999997E-5
4.3938700241799546E-7|0|-5.8399999999999997E-5
4.4102607753011815E-7|0|-5.8399999999999997E-5
4.551732292962002E-7|0|-5.8399999999999997E-5
4.801778599774326E-7|0|-5.8399999999999997E-5
5.101292139604469E-7|0|-5.8399999999999997E-5
5.344385732971858E-7|0|-5.8399999999999997E-5
5.885220001666752E-7|0|-5.8399999999999997E-5
5.88590956530735E-7|0|-5.8399999999999997E-5
6.051416439252063E-7|0|-5.8399999999999997E-5
6.086070367206495E-7|0|-5.8399999999999997E-5
6.15558929587725E-7|0|-5.8399999999999997E-5
6.34244137913449E-7|0|-5.8399999999999997E-5
6.380488145591013E-7|0|-5.8399999999999997E-5
6.792943454674182E-7|0|-5.8399999999999997E-5
6.90670127149617E-7|0|-5.8399999999999997E-5
6.962657391760334E-7|0|-5.8399999999999997E-5
7.43041617368451E-7|0|-5.8399999999999997E-5
7.441329647075459E-7|0|-5.8399999999999997E-5
7.447698918899213E-7|0|-5.8399999999999997E-5
7.46013267096938E-7|0|-5.8399999999999997E-5
7.663933347243208E-7|0|-5.8399999999999997E-5
7.689303602048008E-7|0|-5.8399999999999997E-5
8.344800625463119E-7|0|-5.8399999999999997E-5
9.151533187431311E-7|0|-5.8399999999999997E-5
9.154632661416663E-7|0|-5.8399999999999997E-5
9.163501426645491E-7|0|-5.8399999999999997E-5
9.286051282051283E-7|0|-5.8399999999999997E-5
% Elements (lines)
2|3
3|4
4|5
1|2
5|6
8|9
9|10
6|7
7|8
88|89
89|90
87|88
90|91
86|87
85|86
84|85
12|13
11|12
10|11
13|14
14|15
15|16
16|17
17|18
18|19
19|20
22|23
20|21
23|24
21|22
24|25
25|26
35|36
34|35
33|34
27|28
26|27
29|30
30|31
32|33
31|32
28|29
37|38
36|37
40|41
38|39
41|42
39|40
52|53
51|52
48|49
47|48
46|47
50|51
49|50
53|54
45|46
42|43
43|44
44|45
54|55
68|69
69|70
66|67
67|68
71|72
70|71
59|60
58|59
57|58
60|61
55|56
56|57
61|62
64|65
65|66
63|64
62|63
74|75
73|74
72|73
78|79
82|83
81|82
80|81
79|80
83|84
77|78
76|77
75|76
% Data (u (m) @ lambda=1)
1.3382868668652168E-17
1.2916401100541638E-17
1.2804768343046539E-17
1.2614786254351954E-17
9.194737306075381E-18
7.679591741387006E-18
7.069644519856344E-18
6.438570155262052E-18
6.36034917027748E-18
6.186478389911251E-18
5.511555553344539E-18
4.9719454654449856E-18
4.967310733688218E-18
4.482187783947127E-18
4.470365599216114E-18
4.348864964774739E-18
3.6409055575526686E-18
3.4932024390021005E-18
3.161011816624346E-18
2.8576638638322744E-18
2.8447455862460947E-18
2.6009127630808546E-18
2.356472924002137E-18
2.2019600548344747E-18
2.1145758600228447E-18
1.8200329641981006E-18
1.4382651251501547E-18
1.4348824426292722E-18
1.0848780834396178E-18
7.608042418328204E-19
6.783744860733078E-19
5.975686175935988E-19
-1.2059989226937876E-19
-3.191360943366258E-19
-3.400505780185939E-19
-5.226262694595841E-19
-5.326796407810859E-19
-6.069937811249441E-19
-7.085980817961385E-19
-8.018098451315806E-19
-8.099574158017603E-19
-8.208825963569733E-19
-8.5063098075723785E-19
-9.33524067413578E-19
-9.65515527556742E-19
-9.98268480831597E-19
-1.0198265896600923E-18
-1.0268722490241553E-18
-1.0040470095193983E-18
-9.951939936787029E-19
-9.134345370242768E-19
-8.581241298084151E-19
-8.429677514916143E-19
-6.508641173112885E-19
-5.365242702371154E-19
-2.189419558242959E-19
-1.8935530556247836E-19
-6.639272263104357E-20
6.555097955612542E-20
1.007273022817975E-19
1.6769299732881016E-19
6.4653945337956635E-19
8.023969613041268E-19
8.803569121706043E-19
8.97113592078155E-19
9.114327206549725E-19
1.0447685428354801E-18
1.3091347463080114E-18
1.674055130203967E-18
2.008903577487083E-18
2.878165646065533E-18
2.879383424807365E-18
3.192493369286418E-18
3.2577408317972266E-18
3.3883077532999854E-18
3.719048873462963E-18
3.786394283463479E-18
4.516468728261236E-18
4.72339033188941E-18
4.825172613418161E-18
5.676009944608961E-18
5.695861181897934E-18
5.707446670935378E-18
5.730063243486183E-18
6.292157142802277E-18
6.3861925635109994E-18
8.988862575995202E-18
1.2636885878676832E-17
1.2651852112971336E-17
1.2694716445277022E-17
1.3293136775952036E-17
% Data (v (m) @ lambda=1)
-4.736877878523975E-18
-4.596928009251232E-18
-4.563834359628394E-18
-4.507875042606829E-18
-3.587078305544721E-18
-3.240467731581477E-18
-3.098439359161571E-18
-2.9289695157877362E-18
-2.9059686926823292E-18
-2.8529725708336373E-18
-2.5957785433281007E-18
-2.3901483819670248E-18
-2.388382216618413E-18
-2.236451399814246E-18
-2.2327489277222724E-18
-2.1946973561716878E-18
-2.0834711204175958E-18
-2.0602657477395448E-18
-2.0080758734290002E-18
-1.9341612301435565E-18
-1.93097183581443E-18
-1.870045815979429E-18
-1.8073937337873566E-18
-1.7668204755326406E-18
-1.7434888816669696E-18
-1.6623657406192693E-18
-1.487870174549497E-18
-1.4863240435218344E-18
-1.3413436554225017E-18
-1.2345715456307824E-18
-1.2118910148403441E-18
-1.19149280446605E-18
-1.0965985188121449E-18
-1.099484173055872E-18
-1.1010484002389281E-18
-1.1331482431739936E-18
-1.1304969092364778E-18
-1.1089141843171762E-18
-1.0719203386981443E-18
-1.0252693785625509E-18
-1.0202560847899419E-18
-1.0132007478715648E-18
-9.651552383089993E-19
-8.312776961194355E-19
-7.796094783248869E-19
-7.411880625442632E-19
-7.115589385334726E-19
-6.994041788343492E-19
-6.710937914154425E-19
-6.733036570574571E-19
-7.072633166050885E-19
-7.357967308949785E-19
-7.440032700112705E-19
-8.559162958457687E-19
-9.792481248509465E-19
-1.0817520731432115E-18
-1.0913015610427062E-18
-1.1309893826583121E-18
-1.1735759808808536E-18
-1.1849296104822087E-18
-1.2065436860491883E-18
-1.2755659409952078E-18
-1.3707883666343005E-18
-1.4136794898970107E-18
-1.4225818884767503E-18
-1.4301088100994054E-18
-1.453221974855459E-18
-1.5058305904212625E-18
-1.5886143270956853E-18
-1.6716447613565463E-18
-1.9072873311331954E-18
-1.9076326200605846E-18
-1.957947032816215E-18
-1.969804929072897E-18
-1.9949742761530498E-18
-2.1034877913826137E-18
-2.125583281565787E-18
-2.3651148654983966E-18
-2.440270753285534E-18
-2.477239042701265E-18
-2.7862712262280743E-18
-2.793481383775504E-18
-2.7976893432093667E-18
-2.8059038967358544E-18
-2.9462749518340545E-18
-2.9638914579260743E-18
-3.536842280312017E-18
-4.554135806311046E-18
-4.558710659746977E-18
-4.57182927476703E-18
-4.757389163419884E-18
% Data (w (m) @ lambda=1)
1.6967522514309296E-17
1.650071094390697E-17
1.6389572162327328E-17
1.620095281419904E-17
1.2930445016141987E-17
1.1570582897627546E-17
1.1123678075691845E-17
1.0676567010395279E-17
1.0622501319458586E-17
1.0503591397365747E-17
1.0006794749006652E-17
9.609598997781282E-18
9.606187468228483E-18
9.235485655106249E-18
9.226451851784448E-18
9.133608366422733E-18
8.60577346671254E-18
8.495650117871204E-18
8.247978002692386E-18
7.953223265163917E-18
7.94045441577739E-18
7.695670841573744E-18
7.442101057965719E-18
7.276777918536135E-18
7.1812776834343E-18
6.846497338989665E-18
6.294204208068457E-18
6.289310573431685E-18
5.7793122356988704E-18
5.292834997654852E-18
5.166772152339014E-18
5.04223966165611E-18
3.8905847002962995E-18
3.495256992374162E-18
3.4482875325367617E-18
2.9603361248262382E-18
2.9356857786379136E-18
2.743796665712224E-18
2.4449424457390917E-18
2.1087866127157995E-18
2.0748416993633008E-18
2.027701098712237E-18
1.7448716325026566E-18
9.567748022334904E-19
6.526195421086526E-19
4.0348795234055173E-19
1.5916798627290265E-19
3.3570821829379E-20
-8.125414017218719E-19
-8.965403174957558E-19
-1.4214353229155532E-18
-1.673609553268542E-18
-1.7355344014583787E-18
-2.3742311377208012E-18
-2.9594668547054078E-18
-3.582202502868595E-18
-3.640217892868621E-18
-3.881330764418801E-18
-4.1400543871573486E-18
-4.209030363269463E-18
-4.340340967220764E-18
-5.313130411033173E-18
-5.5727527841126255E-18
-5.6913479679222574E-18
-5.7160860043180095E-18
-5.737034138741189E-18
-5.930392814674894E-18
-6.2809140805586E-18
-6.715518688537745E-18
-7.0800671600782E-18
-7.929078280369659E-18
-7.930194206371958E-18
-8.172012042993733E-18
-8.222560277971118E-18
-8.323877213901702E-18
-8.591415327465794E-18
-8.64589135977729E-18
-9.23645215737723E-18
-9.388991839432585E-18
-9.464024299026138E-18
-1.0091249555862495E-17
-1.0105883607461607E-17
-1.0114424266258178E-17
-1.0131096883933134E-17
-1.0528688653087141E-17
-1.0602535435382785E-17
-1.2783437596892095E-17
-1.6176757977285493E-17
-1.619131019860596E-17
-1.6233013804654016E-17
-1.6819025837668988E-17
% Data (solid.eZZ (1) @ lambda=1)
1.6638040697562315E-10
1.6504838628417531E-10
1.6472815509326527E-10
1.6418101949906445E-10
1.5381708483844424E-10
1.3340807356399498E-10
1.2782112158063615E-10
1.2141256295358287E-10
1.2056259007881207E-10
1.1862112522483567E-10
1.093589447415545E-10
1.0538698722930091E-10
1.0535287193377292E-10
1.0169102071068773E-10
1.0160068267746971E-10
1.0082950647870352E-10
9.555115748160173E-11
9.44499239931884E-11
9.0860513502299E-11
8.759981467969702E-11
8.745606394406198E-11
8.465756482619738E-11
8.16673657821696E-11
7.966338536723819E-11
7.848480426877256E-11
7.422119063475592E-11
6.844406435848283E-11
6.792669982821172E-11
6.275183593423465E-11
5.7830250124144906E-11
5.655721171698722E-11
5.530055795396288E-11
4.39686151489362E-11
3.914790620809822E-11
3.8570792976523795E-11
3.251220257126848E-11
3.221241984196377E-11
2.9871554532440516E-11
2.6199933923061596E-11
2.203144937161768E-11
2.160820087647414E-11
2.113438517581032E-11
1.8306090513714588E-11
1.0425122211023119E-11
7.383569609774815E-12
4.831118860414545E-12
2.0638189978602387E-12
6.447579155589413E-13
-8.853754459563347E-12
-9.790987646983197E-12
-1.562454330792774E-11
-1.84131666249243E-11
-1.9096578659501754E-11
-2.611413082556229E-11
-3.199645998652137E-11
-3.8258134225896687E-11
-3.883828812589693E-11
-4.124941684139866E-11
-4.3836653068784075E-11
-4.4526412829905213E-11
-4.621937628126172E-11
-5.5947270719385575E-11
-5.854418513425173E-11
-6.038095603246865E-11
-6.07590672307504E-11
-6.107793524540886E-11
-6.423664618852296E-11
-6.85318362519613E-11
-7.367675359364897E-11
-7.78525128761119E-11
-8.71427359811018E-11
-8.715458101466768E-11
-9.07544781933043E-11
-9.123630505704498E-11
-9.220289353198173E-11
-9.505056264619888E-11
-9.559532296931387E-11
-1.0100752591413016E-10
-1.0253292273468367E-10
-1.0328324733061923E-10
-1.0955549989898263E-10
-1.0970184041497371E-10
-1.0978724700293942E-10
-1.1842589711129175E-10
-1.244306184142356E-10
-1.3805501295369626E-10
-1.4954298346130323E-10
-1.6371029183468605E-10
-1.6376478412857332E-10
-1.6392070974865993E-10
-1.6607570573606623E-10
% Data (solid.eXY (1) @ lambda=1)
3.16069211679637E-12
-5.02048040107692E-12
-5.015436180683956E-12
-5.006343777341025E-12
-4.721381481819492E-12
-1.0577101453645701E-11
-9.262925446863082E-12
-7.752088482401058E-12
-7.55143133965485E-12
-7.092859906864183E-12
-8.792894839368275E-13
-8.792894839368275E-13
-8.792894839368275E-13
-1.6498119011235848E-12
-1.6498119011235848E-12
-3.319071994695695E-12
-3.319071994695695E-12
-3.319071994695695E-12
-2.5137790786116354E-12
-2.3466030969146792E-12
-2.3392329987679694E-12
-2.1957539892795204E-12
-2.0424465273362073E-12
-1.9397024803100243E-12
-1.879276644357401E-12
-1.6606812347161984E-12
-9.685392013711789E-13
-7.694400906258603E-13
-1.1524637019441883E-12
-1.5167406392734262E-12
-1.6109660678154175E-12
-1.703978767734071E-12
-2.2512558097843295E-12
-2.195451262710615E-12
-2.18877059750276E-12
-6.909951020006897E-13
-6.756814451674692E-13
-5.561041495508383E-13
-3.685485216325312E-13
-1.556118321726467E-13
-1.3399123306462587E-13
6.610354548045614E-13
6.610354548045614E-13
6.610354548045614E-13
6.610354548045614E-13
6.544822851129415E-13
5.288822775272695E-13
4.644750605453475E-13
3.336412728104291E-14
-9.174268012635521E-15
-2.7394305768394343E-13
-4.0051087727869354E-13
-4.3152903974405096E-13
-7.50036122123079E-13
-2.7499304522571037E-13
9.426859678302672E-13
9.426859678302682E-13
9.426859678302674E-13
9.426859678302687E-13
9.42685967830269E-13
1.4407997211109432E-12
1.4407997211109432E-12
-1.5672230700776538E-13
-1.055379999424714E-13
-9.500137847462051E-14
-8.611565495220184E-14
1.3385883317401543E-12
1.3172911449124323E-12
1.2917806868836204E-12
1.271075683316218E-12
1.2250112218567894E-12
1.2249524896728716E-12
2.3616105211751245E-12
2.3095978887249064E-12
2.205255821354091E-12
1.932314681798162E-12
1.9323146817981618E-12
1.571279494355369E-12
1.571279494355369E-12
1.571279494355369E-12
1.571279494355369E-12
1.571279494355369E-12
1.571279494355369E-12
8.388984953551731E-12
9.400247063103536E-12
3.4040032928599982E-12
4.101085939138734E-12
4.768926857846646E-12
4.771087643706039E-12
4.7772533241250905E-12
4.859849966629588E-12
% Data (solid.eYZ (1) @ lambda=1)
-2.3748543356153374E-11
-2.444430836096788E-11
-2.429688913118668E-11
-2.4044331558837788E-11
-1.9098076883742355E-11
-2.2587172870998953E-11
-2.0724169740871725E-11
-1.8588249987483912E-11
-1.830504546623626E-11
-1.7658238198259985E-11
-1.3226183054589007E-11
-1.2198032247783654E-11
-1.2189201421040596E-11
-1.1133847061794265E-11
-1.1115334701334392E-11
-1.169636323930282E-11
-1.1140232060532374E-11
-1.1024205197142124E-11
-1.0628833670554395E-11
-1.0039734545226178E-11
-1.0013763599353818E-11
-9.508168488533285E-12
-8.96793961821145E-12
-8.605887440491792E-12
-8.392957289009593E-12
-7.622665029839105E-12
-6.778102400114573E-12
-6.521626107591711E-12
-6.433207388983194E-12
-6.349116228371898E-12
-6.327364849590455E-12
-6.305893421986245E-12
-5.980662285792616E-12
-5.604545259174088E-12
-5.5595182485526516E-12
-5.02660826963903E-12
-5.020646076853588E-12
-4.9740900584581826E-12
-4.901067473204866E-12
-4.818163069150327E-12
-4.809745342318469E-12
-4.9606437782515015E-12
-4.720416230438678E-12
-4.051028519490877E-12
-3.792687430518141E-12
-3.8674141723710645E-12
-3.8924937463795006E-12
-3.905354458699714E-12
-3.9914378814994644E-12
-3.999931868510096E-12
-4.052800403977001E-12
-4.078073228872716E-12
-4.084266877393203E-12
-4.1478657743860056E-12
-4.7910862256746706E-12
-5.285538691890159E-12
-5.333286131387629E-12
-5.531725239465651E-12
-5.744658230578354E-12
-5.80142637858513E-12
-5.57898407587303E-12
-5.92409535060312E-12
-8.106371048068991E-12
-8.270399414062751E-12
-8.304165716696526E-12
-8.332641450639646E-12
-6.6408288463013994E-12
-7.154295350064057E-12
-7.769342107149707E-12
-8.26853131359995E-12
-9.379126725313993E-12
-9.380542734357183E-12
-1.018769098117694E-11
-1.0216168243370875E-11
-1.0273296219218259E-11
-1.0278470654515288E-11
-1.0388948105431169E-11
-1.1731810035230292E-11
-1.2107589474165974E-11
-1.2292430921244628E-11
-1.383759183887863E-11
-1.3873642626615779E-11
-1.3894682423785092E-11
-1.8520646397706974E-11
-2.0035260339233994E-11
-1.4150724698363356E-11
-1.896992180149783E-11
-2.4630855413233758E-11
-2.4652029020803374E-11
-2.4712590337043097E-11
-2.5545737133802364E-11
% Data (solid.eXZ (1) @ lambda=1)
3.202515493965674E-11
3.229436079570388E-11
3.232896082371977E-11
3.2387949757579015E-11
3.347496759785318E-11
3.4638807520922366E-11
3.320770743971848E-11
3.157490547912255E-11
3.135904962401861E-11
3.08666222142758E-11
2.4056504645240974E-11
2.135845420574327E-11
2.133528054695943E-11
1.8734892052043147E-11
1.8675781128388077E-11
1.8332951165100223E-11
1.4793154128989966E-11
1.4054638536237143E-11
1.225111907091198E-11
1.1446222838012575E-11
1.1410738289489703E-11
1.0719935022984985E-11
9.981811057203676E-12
9.487132960716595E-12
9.196202844832892E-12
8.14373932726702E-12
6.2383848704938204E-12
5.874636557521432E-12
4.245097968400503E-12
2.695315372853302E-12
2.2944419871182852E-12
1.8987280433379314E-12
-1.249246850190369E-12
-1.7946031579041646E-12
-1.8598907214071165E-12
-2.66370663804332E-12
-2.6963100060915877E-12
-2.950894696193074E-12
-3.3502078865787895E-12
-3.803558339253205E-12
-3.8495894314880546E-12
-4.426839756024084E-12
-4.5755816780254025E-12
-4.9900471113070946E-12
-5.150004412022909E-12
-5.41741752443749E-12
-5.283158539742999E-12
-5.2143110314887355E-12
-4.753478924044163E-12
-4.708007893648194E-12
-4.424985706282388E-12
-4.289692187751384E-12
-4.2565356053614756E-12
-3.916070359218525E-12
-2.6084920367679697E-12
-1.1414682480855775E-12
-9.935349967764915E-13
-3.787220821193337E-13
2.8099642881650196E-13
4.568780424448538E-13
5.892514368158992E-13
2.983483717069621E-12
4.374976516023689E-12
4.6503440337542476E-12
4.707030222651324E-12
4.7548347113686804E-12
5.018064790269346E-12
5.9404325745501424E-12
7.045274488102474E-12
7.941995187342504E-12
9.937018079056877E-12
9.939561733052065E-12
1.1772249743732052E-11
1.2109878029078214E-11
1.2787191051632959E-11
1.493001313343933E-11
1.5266740183441894E-11
1.950432402883714E-11
2.053893204697799E-11
2.1047843454621738E-11
2.530203011057563E-11
2.5401286297020483E-11
2.545921374220771E-11
3.034091632813938E-11
3.1991061598794536E-11
3.4325608067045125E-11
3.397826886371897E-11
3.3530494235382735E-11
3.352873075694583E-11
3.352368295733527E-11
3.345365532550925E-11
% Data (bottom-(d_top/2) (m) @ lambda=1)
-9.286051282051286E-7
-9.1950036531666E-7
-9.173039240899486E-7
-9.135500317467376E-7
-8.421727239202919E-7
-8.078370727766467E-7
-7.890064917346567E-7
-7.675296739322227E-7
-7.646910301416514E-7
-7.582157792373585E-7
-7.259324610627892E-7
-7.001215042925576E-7
-6.998998129941587E-7
-6.759972414487875E-7
-6.754147486673051E-7
-6.694282711999066E-7
-6.34299874625851E-7
-6.269709604667352E-7
-6.104879194872292E-7
-5.927085058552053E-7
-5.919246849849526E-7
-5.766654794979324E-7
-5.60361003513417E-7
-5.494340217079927E-7
-5.430076444224683E-7
-5.197596983561623E-7
-4.778838800236533E-7
-4.775128362000712E-7
-4.394865630085842E-7
-4.0332144439210424E-7
-3.93966820339059E-7
-3.847325949992406E-7
-2.9965543280996E-7
-2.697356410124565E-7
-2.661537803475208E-7
-2.2859194211452903E-7
-2.2670508507829433E-7
-2.1197148721428224E-7
-1.8886200656721935E-7
-1.6262522359920228E-7
-1.599612629267861E-7
-1.5625722787039364E-7
-1.343895695290284E-7
-7.345591768856418E-8
-4.993940294815739E-8
-3.045323886040194E-8
-1.1406818117822143E-8
-1.6398843645774425E-9
6.37352726876805E-8
7.018594247705077E-8
1.103363999851327E-7
1.2952958309722937E-7
1.3423328482729417E-7
1.8253280341087804E-7
2.267570935276508E-7
2.747951090052308E-7
2.792704336650273E-7
2.9786995320359093E-7
3.1782797139347474E-7
3.231487989674675E-7
3.332781385091956E-7
4.065599563711918E-7
4.2800185886715743E-7
4.374433999673628E-7
4.3938700241799546E-7
4.4102607753011815E-7
4.551732292962002E-7
4.801778599774326E-7
5.101292139604469E-7
5.344385732971856E-7
5.885220001666749E-7
5.88590956530735E-7
6.051416439252063E-7
6.086070367206495E-7
6.155589295877252E-7
6.34244137913449E-7
6.380488145591013E-7
6.792943454674182E-7
6.90670127149617E-7
6.962657391760332E-7
7.430416173684512E-7
7.441329647075459E-7
7.447698918899213E-7
7.460132670969382E-7
7.663933347243208E-7
7.689303602048014E-7
8.344800625463117E-7
9.151533187431315E-7
9.154632661416667E-7
9.163501426645489E-7
9.286051282051283E-7
% Data (freq (Hz) @ lambda=1)
9137.096364104891
9137.096364104891
9137.096364104891
9137.096364104891
9137.096364104891
9137.096364104891
9137.096364104891
9137.096364104891
9137.096364104891
9137.096364104891
9137.096364104891
9137.096364104891
9137.096364104891
9137.096364104891
9137.096364104891
9137.096364104891
9137.096364104891
9137.096364104891
9137.096364104891
9137.096364104891
9137.096364104891
9137.096364104891
9137.096364104891
9137.096364104891
9137.096364104891
9137.096364104891
9137.096364104891
9137.096364104891
9137.096364104891
9137.096364104891
9137.096364104891
9137.096364104891
9137.096364104891
9137.096364104891
9137.096364104891
9137.096364104891
9137.096364104891
9137.096364104891
9137.096364104891
9137.096364104891
9137.096364104891
9137.096364104891
9137.096364104891
9137.096364104891
9137.096364104891
9137.096364104891
9137.096364104891
9137.096364104891
9137.096364104891
9137.096364104891
9137.096364104891
9137.096364104891
9137.096364104891
9137.096364104891
9137.096364104891
9137.096364104891
9137.096364104891
9137.096364104891
9137.096364104891
9137.096364104891
9137.096364104891
9137.096364104891
9137.096364104891
9137.096364104891
9137.096364104891
9137.096364104891
9137.096364104891
9137.096364104891
9137.096364104891
9137.096364104891
9137.096364104891
9137.096364104891
9137.096364104891
9137.096364104891
9137.096364104891
9137.096364104891
9137.096364104891
9137.096364104891
9137.096364104891
9137.096364104891
9137.096364104891
9137.096364104891
9137.096364104891
9137.096364104891
9137.096364104891
9137.096364104891
9137.096364104891
9137.096364104891
9137.096364104891
9137.096364104891
9137.096364104891
% Data (u (m) @ lambda=2)
-1.1461295571162673E-17
-1.1061225130281743E-17
-1.0965491591351904E-17
-1.0802576196743186E-17
-7.872003973421352E-18
-6.5757011838774464E-18
-6.081719167566711E-18
-5.551576584564538E-18
-5.484178027670311E-18
-5.332781676479615E-18
-4.7329681209245124E-18
-4.253408935932501E-18
-4.249289983685734E-18
-3.79244696332414E-18
-3.781313945224974E-18
-3.666896111882575E-18
-3.1506623811662216E-18
-3.0429594095693173E-18
-2.8007308261933998E-18
-2.5526995308869857E-18
-2.542025484895516E-18
-2.338611148067252E-18
-2.1304809360298305E-18
-1.9963255651409036E-18
-1.9194236677205703E-18
-1.6535818780055608E-18
-1.2151275625979179E-18
-1.2112426053091273E-18
-8.279638230321252E-19
-5.063669152709348E-19
-4.29993210723785E-19
-3.573484499915238E-19
1.8358799838637425E-19
2.8101859186688166E-19
2.8982971142149334E-19
3.454881732480285E-19
3.5033692548530825E-19
3.890494834992418E-19
4.528084433227449E-19
5.296942816012472E-19
5.377684308940186E-19
5.490768814544888E-19
6.219029091629907E-19
8.248307100295209E-19
9.031479366551379E-19
9.677818312343114E-19
1.0160826313605916E-18
1.0351474496870043E-18
1.0631953957102854E-18
1.0565724801461723E-18
9.774282155492975E-19
9.165101738695744E-19
8.993027508099085E-19
6.707244415827267E-19
4.145977266476321E-19
1.4331421146116767E-19
1.1804085673907495E-19
1.3004397779695889E-20
-9.970386622496469E-20
-1.2975200192797921E-19
-1.8695509015046803E-19
-5.45730337118474E-19
-7.246846268362383E-19
-8.072648456661845E-19
-8.245514575885761E-19
-8.392057165915787E-19
-9.39872073068491E-19
-1.1452793757208762E-18
-1.437531208929682E-18
-1.7117604991513355E-18
-2.4408879450107792E-18
-2.4419224112752038E-18
-2.6756235871731447E-18
-2.7255972237327936E-18
-2.8269358996187387E-18
-3.132160144977363E-18
-3.1943098164051126E-18
-3.868058582083872E-18
-4.048045649234168E-18
-4.13657915187E-18
-4.876664832523246E-18
-4.893932077297586E-18
-4.904009508347746E-18
-4.9236821306889404E-18
-5.40453291205438E-18
-5.4840686153290276E-18
-7.695397064488377E-18
-1.0818945818268612E-17
-1.0831805049384083E-17
-1.0868636542092479E-17
-1.1383100793424765E-17
% Data (v (m) @ lambda=2)
-5.453703917763908E-18
-5.3031756628454835E-18
-5.2675800567975955E-18
-5.20738945441671E-18
-4.216612433549258E-18
-3.842789040727313E-18
-3.648749227108918E-18
-3.4514334118940844E-18
-3.42728178958467E-18
-3.373883583232671E-18
-3.097197541712907E-18
-2.875983247135866E-18
-2.8740832290688987E-18
-2.740579348740889E-18
-2.7373259311559506E-18
-2.7038894463042346E-18
-2.4398523557113497E-18
-2.384765720382052E-18
-2.260873524642998E-18
-2.1634230402099397E-18
-2.159323938073461E-18
-2.0828396967433263E-18
-2.0080869997691225E-18
-1.9620195137438715E-18
-1.93643685819336E-18
-1.8532339386037275E-18
-1.7735799466006415E-18
-1.7728741664407956E-18
-1.6974829634421088E-18
-1.6218848380288385E-18
-1.6017118636203166E-18
-1.5815492241506527E-18
-1.3841326291516968E-18
-1.3046302006250028E-18
-1.2960508528016693E-18
-1.2181663734721427E-18
-1.210197903247752E-18
-1.1517552245091666E-18
-1.0735860054080287E-18
-1.0048205533721732E-18
-9.990266916957798E-19
-9.913348103450736E-19
-9.89975954726701E-19
-9.86189539470945E-19
-9.84728223966527E-19
-9.82969014767499E-19
-9.83239478671696E-19
-9.841412299182564E-19
-1.0034970419762113E-18
-1.0066632040288068E-18
-1.0314434515158728E-18
-1.0463775428383774E-18
-1.0503422428585977E-18
-1.0979948507257215E-18
-1.058427215727391E-18
-1.1612886372788323E-18
-1.1708714281546492E-18
-1.210697657462631E-18
-1.2534327725990815E-18
-1.2648259969579528E-18
-1.2865154496607954E-18
-1.4156508231069957E-18
-1.48359832225613E-18
-1.519975888490053E-18
-1.527954547575102E-18
-1.5348131559366445E-18
-1.5850226383096997E-18
-1.6823681066677881E-18
-1.813434401960912E-18
-1.9314013517444078E-18
-2.2311069176764728E-18
-2.2315218526317404E-18
-2.3339511956742182E-18
-2.355168224569336E-18
-2.397491704180864E-18
-2.4940387112898735E-18
-2.513697584594998E-18
-2.7268144252746946E-18
-2.8227301241856572E-18
-2.8699099183608706E-18
-3.2643040069904462E-18
-3.2735057784122486E-18
-3.278876074499111E-18
-3.2893596795224557E-18
-3.4580136257139377E-18
-3.480071113706569E-18
-4.145362904848448E-18
-5.217881270214331E-18
-5.222544098494402E-18
-5.2359091933121616E-18
-5.424078533190325E-18
% Data (w (m) @ lambda=2)
-1.4551080648836505E-17
-1.4148102563719687E-17
-1.4052229153175846E-17
-1.38895793282043E-17
-1.1084325643816106E-17
-9.929140054044467E-18
-9.565657757243144E-18
-9.19206319881898E-18
-9.145976031146902E-18
-9.04373840441929E-18
-8.60631096414331E-18
-8.256581711096052E-18
-8.253577873118007E-18
-7.947880209892664E-18
-7.940430522656846E-18
-7.863867539914128E-18
-7.382549012176097E-18
-7.282130475692444E-18
-7.056284898022074E-18
-6.8223819819049694E-18
-6.8121809079964645E-18
-6.615452406620729E-18
-6.40916454995604E-18
-6.2731785967845914E-18
-6.194051279048602E-18
-5.913052166406529E-18
-5.4210813535659474E-18
-5.416722209344867E-18
-4.976401294644389E-18
-4.559481569502773E-18
-4.451932957144429E-18
-4.345886913357186E-18
-3.3743917193540786E-18
-3.047223134497528E-18
-3.0082485551120378E-18
-2.6020142676436446E-18
-2.5797023385691728E-18
-2.4047184416776322E-18
-2.1275428842375105E-18
-1.808838579199547E-18
-1.776239784722799E-18
-1.7308404008230413E-18
-1.4827098811079302E-18
-7.913007478897737E-19
-5.24460790298734E-19
-3.169510269294688E-19
-1.1251155678981495E-19
-7.057414027312535E-21
7.095956652331008E-19
7.813269885340826E-19
1.2319104552327469E-18
1.4498061810941965E-18
1.5034531863104124E-18
2.0599474050628376E-18
2.5673195318638687E-18
3.1055499467357022E-18
3.155692647769067E-18
3.3640865003904354E-18
3.587701325098881E-18
3.6473172606062136E-18
3.760809014370821E-18
4.5834662744639035E-18
4.826507843676252E-18
4.934891188032051E-18
4.957306154707151E-18
4.9762365819480746E-18
5.1329072610652146E-18
5.419664258717546E-18
5.779706794489259E-18
6.08519452822161E-18
6.807487153787904E-18
6.808445635399761E-18
7.023404546377169E-18
7.068689938056092E-18
7.159825928244834E-18
7.38271557372218E-18
7.428100298041144E-18
7.920104540189377E-18
8.054763833723477E-18
8.12100114236902E-18
8.674704341656388E-18
8.687623019755919E-18
8.695162560053667E-18