% Model:              Geometry_altered.mph
% Version:            COMSOL 6.1.0.357
% Date:               Jun 12 2023, 12:57
% Dimension:          3
% Nodes:              97
% Elements:           96
% Expressions:        900
% Description:        Frequency, , Strain tensor, ZZ-component, Strain tensor, XY-component, Strain tensor, XZ-component, Strain tensor, YZ-component, Displacement field, X-component, Displacement field, Y-component, Displacement field, Z-component
% Length unit:        m
% Coordinates
-1.0E-7|0|-1.8999999999999998E-6
-9.294131667134622E-8|0|-1.8999999999999998E-6
-9.292187484708909E-8|0|-1.8999999999999998E-6
-9.272144775906353E-8|0|-1.8999999999999998E-6
-9.122033491741085E-8|0|-1.8999999999999998E-6
-9.103540772345966E-8|0|-1.8999999999999998E-6
-9.01660599718194E-8|0|-1.8999999999999998E-6
-8.570213362024602E-8|0|-1.8999999999999998E-6
-8.530750639094454E-8|0|-1.8999999999999998E-6
-8.496381722947718E-8|0|-1.8999999999999998E-6
-8.372797889704624E-8|0|-1.8999999999999998E-6
-8.294945948779288E-8|0|-1.8999999999999998E-6
-7.969752758297774E-8|0|-1.8999999999999998E-6
-7.809102910542144E-8|0|-1.8999999999999998E-6
-7.483360386224137E-8|0|-1.8999999999999998E-6
-7.421708081138118E-8|0|-1.8999999999999998E-6
-7.296772412791616E-8|0|-1.8999999999999998E-6
-7.29148997283623E-8|0|-1.8999999999999998E-6
-7.280090729528517E-8|0|-1.8999999999999998E-6
-7.264020720457326E-8|0|-1.8999999999999998E-6
-7.128051971484367E-8|0|-1.8999999999999998E-6
-6.913778957686151E-8|0|-1.8999999999999998E-6
-6.766648180303E-8|0|-1.8999999999999998E-6
-6.457616634675634E-8|0|-1.8999999999999998E-6
-6.408180493724056E-8|0|-1.8999999999999998E-6
-6.306268427778134E-8|0|-1.8999999999999998E-6
-6.19833347367594E-8|0|-1.8999999999999998E-6
-5.7557809531708475E-8|0|-1.8999999999999998E-6
-5.651212548893929E-8|0|-1.8999999999999998E-6
-5.538723851035112E-8|0|-1.8999999999999998E-6
-5.021739035207524E-8|0|-1.8999999999999998E-6
-4.9744163351254115E-8|0|-1.8999999999999998E-6
-4.916527901120073E-8|0|-1.8999999999999998E-6
-4.620166714451416E-8|0|-1.8999999999999998E-6
-4.557744223155356E-8|0|-1.8999999999999998E-6
-4.475320219992292E-8|0|-1.8999999999999998E-6
-4.029944023113534E-8|0|-1.8999999999999998E-6
-3.9950501848524084E-8|0|-1.8999999999999998E-6
-3.502217724378078E-8|0|-1.8999999999999998E-6
-3.4383910522548525E-8|0|-1.8999999999999998E-6
-3.429401637531787E-8|0|-1.8999999999999998E-6
-3.385259658601298E-8|0|-1.8999999999999998E-6
-3.338050997353551E-8|0|-1.8999999999999998E-6
-3.324837010003668E-8|0|-1.8999999999999998E-6
-2.3016327311124804E-8|0|-1.8999999999999998E-6
-2.2887035446003722E-8|0|-1.8999999999999998E-6
-2.1841719466266178E-8|0|-1.8999999999999998E-6
-1.6486927693143995E-8|0|-1.8999999999999998E-6
-1.3735524469032231E-8|0|-1.8999999999999998E-6
-1.1766110607093252E-8|0|-1.8999999999999998E-6
-1.0234616874254464E-8|0|-1.8999999999999998E-6
-9.830842346519418E-9|0|-1.8999999999999998E-6
-5.1280338431617604E-9|0|-1.8999999999999998E-6
-4.272709458705337E-9|0|-1.8999999999999998E-6
6.545427063373811E-10|0|-1.8999999999999998E-6
3.843048096549625E-9|0|-1.8999999999999998E-6
5.63791145120325E-9|0|-1.8999999999999998E-6
1.0258429937703185E-8|0|-1.8999999999999998E-6
1.158614331618178E-8|0|-1.8999999999999998E-6
1.2175252331638005E-8|0|-1.8999999999999998E-6
1.6707118145613272E-8|0|-1.8999999999999998E-6
2.079901549708932E-8|0|-1.8999999999999998E-6
2.332566213246588E-8|0|-1.8999999999999998E-6
2.4140141817388037E-8|0|-1.8999999999999998E-6
2.5178481391265774E-8|0|-1.8999999999999998E-6
2.6672920287915582E-8|0|-1.8999999999999998E-6
3.109011179034618E-8|0|-1.8999999999999998E-6
3.506518094875002E-8|0|-1.8999999999999998E-6
3.7113858271879125E-8|0|-1.8999999999999998E-6
3.784094579561519E-8|0|-1.8999999999999998E-6
4.3874239990118484E-8|0|-1.8999999999999998E-6
4.4922668409903554E-8|0|-1.8999999999999998E-6
4.6545277510893464E-8|0|-1.8999999999999998E-6
5.1738910760977724E-8|0|-1.8999999999999998E-6
5.50250035665598E-8|0|-1.8999999999999998E-6
6.384643098971103E-8|0|-1.8999999999999998E-6
6.394052468151401E-8|0|-1.8999999999999998E-6
6.401807899326592E-8|0|-1.8999999999999998E-6
6.733634884865223E-8|0|-1.8999999999999998E-6
6.850588662347087E-8|0|-1.8999999999999998E-6
7.052467559315404E-8|0|-1.8999999999999998E-6
7.078119324274509E-8|0|-1.8999999999999998E-6
7.092553333498009E-8|0|-1.8999999999999998E-6
7.653056921145058E-8|0|-1.8999999999999998E-6
7.659566908841328E-8|0|-1.8999999999999998E-6
8.046480450981147E-8|0|-1.8999999999999998E-6
8.279288044020008E-8|0|-1.8999999999999998E-6
8.279908458475446E-8|0|-1.8999999999999998E-6
8.288287132781261E-8|0|-1.8999999999999998E-6
8.470539688236792E-8|0|-1.8999999999999998E-6
8.47767466831985E-8|0|-1.8999999999999998E-6
8.639179345588441E-8|0|-1.8999999999999998E-6
8.737248635787899E-8|0|-1.8999999999999998E-6
9.191776442893311E-8|0|-1.8999999999999998E-6
9.275912804776058E-8|0|-1.8999999999999998E-6
9.495303665722179E-8|0|-1.8999999999999998E-6
9.999999999999998E-8|0|-1.8999999999999998E-6
% Elements (lines)
6|7
7|8
4|5
2|3
5|6
3|4
8|9
9|10
1|2
10|11
11|12
12|13
14|15
13|14
15|16
16|17
17|18
18|19
29|30
30|31
31|32
24|25
21|22
20|21
26|27
25|26
22|23
27|28
23|24
28|29
19|20
34|35
33|34
32|33
41|42
36|37
35|36
38|39
39|40
37|38
40|41
48|49
46|47
45|46
51|52
50|51
44|45
43|44
49|50
42|43
47|48
52|53
53|54
65|66
64|65
60|61
61|62
63|64
59|60
67|68
66|67
62|63
58|59
57|58
68|69
69|70
56|57
54|55
55|56
78|79
77|78
73|74
72|73
75|76
74|75
76|77
71|72
70|71
79|80
80|81
81|82
82|83
85|86
86|87
87|88
88|89
84|85
89|90
90|91
83|84
93|94
92|93
94|95
91|92
95|96
96|97
% Data (freq (Hz) @ lambda=1)
1704764.5281247874
1704764.5281247874
1704764.5281247874
1704764.5281247874
1704764.5281247874
1704764.5281247874
1704764.5281247874
1704764.5281247874
1704764.5281247874
1704764.5281247874
1704764.5281247874
1704764.5281247874
1704764.5281247874
1704764.5281247874
1704764.5281247874
1704764.5281247874
1704764.5281247874
1704764.5281247874
1704764.5281247874
1704764.5281247874
1704764.5281247874
1704764.5281247874
1704764.5281247874
1704764.5281247874
1704764.5281247874
1704764.5281247874
1704764.5281247874
1704764.5281247874
1704764.5281247874
1704764.5281247874
1704764.5281247874
1704764.5281247874
1704764.5281247874
1704764.5281247874
1704764.5281247874
1704764.5281247874
1704764.5281247874
1704764.5281247874
1704764.5281247874
1704764.5281247874
1704764.5281247874
1704764.5281247874
1704764.5281247874
1704764.5281247874
1704764.5281247874
1704764.5281247874
1704764.5281247874
1704764.5281247874
1704764.5281247874
1704764.5281247874
1704764.5281247874
1704764.5281247874
1704764.5281247874
1704764.5281247874
1704764.5281247874
1704764.5281247874
1704764.5281247874
1704764.5281247874
1704764.5281247874
1704764.5281247874
1704764.5281247874
1704764.5281247874
1704764.5281247874
1704764.5281247874
1704764.5281247874
1704764.5281247874
1704764.5281247874
1704764.5281247874
1704764.5281247874
1704764.5281247874
1704764.5281247874
1704764.5281247874
1704764.5281247874
1704764.5281247874
1704764.5281247874
1704764.5281247874
1704764.5281247874
1704764.5281247874
1704764.5281247874
1704764.5281247874
1704764.5281247874
1704764.5281247874
1704764.5281247874
1704764.5281247874
1704764.5281247874
1704764.5281247874
1704764.5281247874
1704764.5281247874
1704764.5281247874
1704764.5281247874
1704764.5281247874
1704764.5281247874
1704764.5281247874
1704764.5281247874
1704764.5281247874
1704764.5281247874
1704764.5281247874
% Data (bottom-r_bottom (m) @ lambda=1)
-1.0000000000000001E-7
-9.294131667134618E-8
-9.292187484708909E-8
-9.272144775906353E-8
-9.122033491741085E-8
-9.103540772345964E-8
-9.01660599718194E-8
-8.570213362024603E-8
-8.530750639094452E-8
-8.496381722947714E-8
-8.372797889704625E-8
-8.294945948779294E-8
-7.969752758297775E-8
-7.809102910542144E-8
-7.483360386224137E-8
-7.421708081138118E-8
-7.296772412791616E-8
-7.29148997283623E-8
-7.280090729528517E-8
-7.264020720457327E-8
-7.128051971484367E-8
-6.913778957686151E-8
-6.766648180303001E-8
-6.457616634675634E-8
-6.408180493724056E-8
-6.306268427778134E-8
-6.198333473675938E-8
-5.755780953170847E-8
-5.651212548893929E-8
-5.5387238510351116E-8
-5.0217390352075244E-8
-4.9744163351254115E-8
-4.9165279011200724E-8
-4.620166714451416E-8
-4.557744223155356E-8
-4.475320219992291E-8
-4.029944023113534E-8
-3.9950501848524084E-8
-3.502217724378078E-8
-3.4383910522548525E-8
-3.429401637531787E-8
-3.385259658601298E-8
-3.338050997353552E-8
-3.3248370100036695E-8
-2.3016327311124804E-8
-2.2887035446003722E-8
-2.1841719466266178E-8
-1.6486927693143995E-8
-1.3735524469032231E-8
-1.1766110607093252E-8
-1.0234616874254464E-8
-9.830842346519418E-9
-5.1280338431617604E-9
-4.272709458705337E-9
6.545427063373811E-10
3.843048096549625E-9
5.63791145120325E-9
1.0258429937703185E-8
1.1586143316181793E-8
1.2175252331638005E-8
1.6707118145613285E-8
2.079901549708932E-8
2.332566213246588E-8
2.4140141817388037E-8
2.5178481391265774E-8
2.6672920287915582E-8
3.109011179034618E-8
3.506518094875002E-8
3.7113858271879125E-8
3.784094579561519E-8
4.3874239990118484E-8
4.4922668409903554E-8
4.6545277510893464E-8
5.1738910760977724E-8
5.50250035665598E-8
6.384643098971103E-8
6.394052468151404E-8
6.401807899326592E-8
6.733634884865223E-8
6.850588662347087E-8
7.052467559315404E-8
7.078119324274509E-8
7.092553333498009E-8
7.65305692114506E-8
7.659566908841328E-8
8.046480450981147E-8
8.279288044020008E-8
8.279908458475446E-8
8.288287132781261E-8
8.470539688236792E-8
8.47767466831985E-8
8.639179345588441E-8
8.737248635787896E-8
9.191776442893311E-8
9.275912804776058E-8
9.495303665722179E-8
9.999999999999998E-8
% Data (solid.eZZ (1) @ lambda=1)
1.2278447433804538E-8
1.1421856755467412E-8
1.1419520668235168E-8
1.1395445114837332E-8
1.121555284807729E-8
1.1193442782046988E-8
1.1089653288816875E-8
1.056058190078895E-8
1.0514117936648386E-8
1.0461048246209005E-8
1.0314019819890655E-8
1.0221206727014393E-8
9.831894940416574E-9
9.682660587973412E-9
9.288128987226864E-9
9.2117171805632E-9
9.061328102532329E-9
9.054969459839181E-9
9.041247824424851E-9
9.025025642165854E-9
8.861642651947294E-9
8.604167563135112E-9
8.42737203810736E-9
8.056033047509602E-9
7.996629511075343E-9
7.874169767940484E-9
7.744472792102114E-9
7.212692109592048E-9
7.087040452853316E-9
6.951024406778982E-9
6.322033374518019E-9
6.264983017340688E-9
6.192714724534177E-9
5.8227355156876246E-9
5.744806876638956E-9
5.653001851386734E-9
5.095571537166842E-9
5.051898607714052E-9
4.435072303961781E-9
4.35518720424923E-9
4.343936103923597E-9
4.2909968967580865E-9
4.231798008640462E-9
4.2150696125239064E-9
2.9197326311700996E-9
2.903364781881882E-9
2.7710318280731413E-9
2.093135932378599E-9
1.7448189422786105E-9
1.4954987762483263E-9
1.3016176021970026E-9
1.2505013110815302E-9
6.551439717606233E-10
5.45399290447346E-10
-8.14752256455654E-11
-4.733721312072758E-10
-7.048874872084746E-10
-1.3099862673271866E-9
-1.4779631109127123E-9
-1.5524947640150658E-9
-2.125847813945954E-9
-2.6435378609985507E-9
-2.96319881610084E-9
-3.066243440682793E-9
-3.197609898999111E-9
-3.3866801703842906E-9
-3.9455250973981E-9
-4.448434521288969E-9
-4.701024307515556E-9
-4.790480800776937E-9
-5.532564467556809E-9
-5.661643674400907E-9
-5.861414199332662E-9
-6.500837976778062E-9
-6.905411379173642E-9
-7.991477755785905E-9
-8.003062274936416E-9
-7.986145613079882E-9
-8.389521627165515E-9
-8.53034157649873E-9
-8.773416889281504E-9
-8.804303281492365E-9
-8.82168723581889E-9
-9.48931508719808E-9
-9.497069273244237E-9
-9.957930296262333E-9
-1.0235232416267972E-8
-1.0235971405239646E-8
-1.0245951424007546E-8
-1.0463036353861315E-8
-1.0450962340856335E-8
-1.0644394189416379E-8
-1.0761850379608981E-8
-1.1306231851633636E-8
-1.140700077229486E-8
-1.1669762077463826E-8
-1.2274229678971319E-8
% Data (solid.eXY (1) @ lambda=1)
-3.370707940725137E-11
-2.946256555328557E-11
-2.946006082314467E-11
-2.9437084960590215E-11
-2.942866569552998E-11
-2.9447437769969776E-11
-2.959325048608452E-11
-3.1800917323564274E-11
-3.2110611144287366E-11
-2.8876824511459922E-11
-3.116047520222774E-11
-3.2646859905980333E-11
-3.926370753976562E-11
-4.272880033918391E-11
-4.6561866029133686E-11
-3.9602268502055245E-11
-3.997656221996466E-11
-3.99923878373707E-11
-4.002653873451231E-11
-5.784914175933371E-11
-5.791930993780343E-11
-5.8029887899177326E-11
-5.810581636600812E-11
-5.826529551698651E-11
-5.829080758491551E-11
-5.834340043500702E-11
-5.839910146321048E-11
-5.862748559173244E-11
-5.868144927462857E-11
-5.868417953932374E-11
-5.961336472405427E-11
-6.756861687984956E-11
-6.727510253128133E-11
-6.577244898498303E-11
-6.545594540039505E-11
-6.287557891620217E-11
-5.410935835683588E-11
-5.3422552271315946E-11
-4.372226276859674E-11
-4.246597945277912E-11
-4.22890432071659E-11
-3.1546177732279907E-11
-2.732821216656251E-11
-2.7264989396795925E-11
-2.236943388855139E-11
-2.2307573758028636E-11
-2.1807438789081017E-11
-1.9245420539046183E-11
-1.7929002352862288E-11
-1.6986729624071715E-11
-1.625398126343093E-11
-1.6060793973832684E-11
-1.38107193262136E-11
2.6203568782480666E-12
1.4551967854563156E-11
-4.7735842948747675E-12
-2.533816819937272E-12
1.7205793356477084E-11
1.8682747014445672E-11
1.9338074232973062E-11
2.437933984035438E-11
2.8931182775165836E-11
3.1741834570215505E-11
3.2647865020371636E-11
3.380291810390238E-11
3.5465337893286636E-11
4.0379039339103456E-11
4.4800922125975205E-11
4.845718867579897E-11
4.821448434163703E-11
6.01807725046843E-11
6.016433938448397E-11
6.013890652713148E-11
6.005750125618846E-11
6.000599487090423E-11
5.986772737011277E-11
5.986625254082666E-11
5.911163738905401E-11
5.457324427041722E-11
5.3414316367289863E-11
5.1413841549034224E-11
5.1159650989178506E-11
5.3289289889027486E-11
4.561328625224212E-11
4.5524133050861154E-11
4.0225416286072004E-11
3.703715492571396E-11
3.702865845268262E-11
3.691391389821238E-11
3.44179953897115E-11
3.8155437912604714E-11
3.322454803749189E-11
3.0230400262442004E-11
1.635323831323171E-11
1.3784475959399961E-11
7.086266389087331E-12
3.830810655714825E-11
% Data (solid.eXZ (1) @ lambda=1)
-1.5203869389284057E-11
-1.1757705483129707E-11
-1.1748084276018167E-11
-1.1648859442536458E-11
-1.0903468650497413E-11
-1.0811372049885069E-11
-1.0377647291317049E-11
-8.131250989774995E-12
-7.931176163015067E-12
-2.0692773842917336E-11
-1.795369902655469E-11
-1.625200588137827E-11
-9.348339726335382E-12
2.082211383491688E-11
2.88866121929748E-11
2.4360880259936025E-11
2.6911915839494658E-11
2.7019776888732208E-11
2.72525356808686E-11
1.224418000643377E-11
1.8681160410978876E-11
2.882519131115372E-11
3.579060018688049E-11
5.042065318519349E-11
5.276104002396902E-11
5.758572199268757E-11
6.26955372242666E-11
8.364668904398369E-11
8.859712636394163E-11
9.148918631707218E-11
1.0815755822479395E-10
1.1554146365626826E-10
1.1800029846299988E-10
1.3058836054598366E-10
1.332397812824204E-10
1.4703197254919068E-10
1.7321011266614863E-10
1.752610884336547E-10
2.0422859342134304E-10
2.0798017147547605E-10
2.085085476209385E-10
2.130279334700261E-10
2.2568210402310813E-10
2.2596181064738868E-10
2.476204521483582E-10
2.4789413026067817E-10
2.5010679927775375E-10
2.614415364088418E-10
2.672655597524663E-10
2.7143430979414673E-10
2.7467609390361615E-10
2.755307822511819E-10
2.854854360307978E-10
2.682422760644948E-10
2.722183355301825E-10
2.6250294582021416E-10
2.576435960992928E-10
2.5993764697501736E-10
2.5730952224488065E-10
2.561434181765141E-10
2.471728761812079E-10
2.3907322395436293E-10
2.3407188660671874E-10
2.3245967554005934E-10
2.3040434796964227E-10
2.274462006122155E-10
2.1870264916996944E-10
2.1083425096855353E-10
1.8296635563782887E-10
1.7967962628198253E-10
1.496609453933931E-10
1.4422994008136828E-10
1.3582459882917617E-10
1.0892085486573272E-10
9.189843621882687E-11
4.620221290914523E-11
4.571479447372391E-11
4.95122049079815E-11
3.709584892264743E-11
3.446177729600693E-11
2.991499406274602E-11
2.9337256535088086E-11
2.8202472681176096E-11
1.65695503512932E-11
1.643443938517448E-11
8.40427636164952E-12
3.5724916820849554E-12
3.559615344945459E-12
3.3857208872044424E-12
-3.968237186686312E-13
-1.3550444055601315E-11
-1.347833496814069E-11
-1.3434548700499492E-11
-1.3231609776640453E-11
-1.3194044324162586E-11
-1.3096090041654376E-11
-1.6334483047336877E-11
% Data (solid.eYZ (1) @ lambda=1)
-5.1755440986437064E-11
-2.808525176868109E-11
-2.8020306277761698E-11
-2.7350861864293894E-11
-2.2341865809131203E-11
-2.172538860210491E-11
-1.8829091510269987E-11
-4.004523414513743E-12
-2.6978809880094087E-12
4.4586949568735747E-13
4.810825139802169E-12
7.60680167576985E-12
1.9681866208668467E-11
5.540165498486928E-12
1.2784298785840057E-11
1.6757550590324782E-11
1.9115504136047452E-11
1.9215201429767608E-11
1.943034324261011E-11
2.2693492855448658E-11
2.7043228394894958E-11
3.38979722261092E-11
3.860478887452016E-11
4.8490924526838204E-11
5.0072421310877826E-11
5.333265970014343E-11
5.6785574501171216E-11
7.094313968471483E-11
7.42883561982203E-11
7.710894289413765E-11
8.671821809592972E-11
9.259478093439292E-11
9.434155475814594E-11
1.032842040479818E-10
1.0516779229289982E-10
1.0415454323032088E-10
1.1772367638550087E-10
1.1878677571810896E-10
1.338017435727804E-10
1.3574633023673254E-10
1.36020207840023E-10
1.4268765977576E-10
1.4693669037173854E-10
1.4714132850519147E-10
1.629871597627516E-10
1.6318738733411257E-10
1.6480621369826025E-10
1.7309890056506963E-10
1.7735985530403868E-10
1.8040978388392819E-10
1.8278152838922546E-10
1.83406832951038E-10
1.906898273166912E-10
1.811386223615834E-10
1.799778015088206E-10
1.9637051933691884E-10
1.9216367705084525E-10
2.0553347316391142E-10
2.0249034901240994E-10
2.0114010889142026E-10
1.9075305507890853E-10
1.813744106684804E-10
1.7558332689765754E-10
1.7371653633858965E-10
1.7133665805617267E-10
1.6791139837810078E-10
1.577871785271048E-10
1.48676304782901E-10
1.3891255041899167E-10
1.3676432707108446E-10
1.1228914003196901E-10
1.0913626705333743E-10
1.042566965525912E-10
8.863820927585911E-11
7.87561486445482E-11
5.222802366213103E-11
5.194506160889269E-11
4.0376523964915345E-11
3.000526578652622E-11
2.7249820230102527E-11
2.249352828671932E-11
2.1889169511022146E-11
1.9020124711663286E-11
3.345655620062212E-12
3.1636039736715696E-12
-7.656423749694222E-12
-1.416688238334301E-11
-1.4184232258371477E-11
-1.4418541679994464E-11
-1.9515229926619154E-11
-1.9142635900172943E-11
-2.3319230775131886E-11
-2.5855353578275712E-11
-3.760967885100235E-11
-3.978548888809337E-11
-4.545905055166792E-11
-6.227315031299626E-11
% Data (u (m) @ lambda=1)
7.993318793201052E-16
7.729999682995566E-16
7.729300883740277E-16
7.722105222132495E-16
7.668692074124275E-16
7.662170133803164E-16
7.631680239622048E-16
7.47946978654245E-16
7.466358746418308E-16
7.454981983334397E-16
7.414259562626457E-16
7.388872898020184E-16
7.285081923854558E-16
7.235356267214982E-16
7.137562486493428E-16
7.119438382197543E-16
7.083125215913786E-16
7.081602080583845E-16
7.078318611553814E-16
7.07368593702308E-16
7.034875051464712E-16
6.975115361664323E-16
6.935074921133729E-16
6.853608665603929E-16
6.840907554521506E-16
6.815012571327768E-16
6.788010461699994E-16
6.681849317113406E-16
6.657834122639658E-16
6.632373030638048E-16
6.521448478006616E-16
6.511794770376525E-16
6.500068762581995E-16
6.442024143315202E-16
6.430222085538663E-16
6.414918499510503E-16
6.337041735161223E-16
6.331283659364489E-16
6.255286138269646E-16
6.246171596035183E-16
6.244901304533587E-16
6.238516134844429E-16
6.231905217590569E-16
6.230071266685647E-16
6.109956862268811E-16
6.108715684151701E-16
6.098934345389066E-16
6.055903665296735E-16
6.038398429012585E-16
6.027787972102887E-16
6.020643836939127E-16
6.018921635785689E-16
6.003821218505592E-16
6.002056351307867E-16
5.999230113126206E-16
6.002236553715679E-16
6.005670600763824E-16
6.021394981870878E-16
6.027535282936277E-16
6.030491647537708E-16
6.058000217282165E-16
6.090084971711289E-16
6.113330775365513E-16
6.121383053416081E-16
6.132043592988832E-16
6.148164184758224E-16
6.201175304371743E-16
6.255731391936611E-16
6.28661169076817E-16
6.297960391232396E-16
6.399418547013516E-16
6.418469645035974E-16
6.448783334708739E-16
6.552583299188915E-16
6.623589718910913E-16
6.8346362802924E-16
6.837047886065815E-16
6.839035201649141E-16
6.926179059318103E-16
6.957688793648303E-16
7.013281025163095E-16
7.020453847985125E-16
7.024500733092615E-16
7.187535936464216E-16
7.189496198291608E-16
7.308752012458772E-16
7.383115166605357E-16
7.383315955003703E-16
7.386028957047577E-16
7.445669705638003E-16
7.448028984424437E-16
7.501924243805594E-16
7.535103079805096E-16
7.693342971440694E-16
7.723439775752991E-16
7.803102566426799E-16
7.992857126537969E-16
% Data (v (m) @ lambda=1)
2.927941005373091E-16
3.101756769881695E-16
3.1022129431051723E-16
3.1069086252821866E-16
3.141671829315174E-16
3.1459052699938794E-16
3.1656636185797194E-16
3.2634727807633943E-16
3.2718318295646385E-16
3.2790772634978736E-16
3.304965802394158E-16
3.3210354149001287E-16
3.386134722334337E-16
3.417210402359396E-16
3.4779710826844516E-16
3.489200140553888E-16
3.5116406955084955E-16
3.51258022675685E-16
3.5146051220110775E-16
3.5173958662416777E-16
3.5407396883509E-16
3.576551607648594E-16
3.600450661256846E-16
3.648815382443926E-16
3.65632197451177E-16
3.6715962235914036E-16
3.687478724647376E-16
3.749432845681711E-16
3.763327930702007E-16
3.7779802651470046E-16
3.8410186040010486E-16
3.846435852334737E-16
3.8529551394706484E-16
3.8849663002629403E-16
3.8914177250817317E-16
3.899850520923457E-16
3.942756840905163E-16
3.9459287751665147E-16
3.9877853100394473E-16
3.9928040832354976E-16
3.993503525162464E-16
3.9968266003880297E-16
4.000371723854436E-16
4.0013548661145484E-16
4.065317872346868E-16
4.065972432223639E-16
4.071123654317903E-16
4.0935801843280985E-16
4.1025602988291175E-16
4.107921607036245E-16
4.1114757178167206E-16
4.1123231112947567E-16
4.119437908035181E-16
4.120186561477604E-16
4.122391872979871E-16
4.1203492062699485E-16
4.118178434292555E-16
4.1104547843710815E-16
4.1073523696238416E-16
4.1058495662372764E-16
4.0916940821712624E-16
4.0749674164949603E-16
4.0627693694309834E-16
4.0585329941253625E-16
4.05291714721178E-16
4.044411288885146E-16
4.01635044778553E-16
3.987368346586531E-16
3.971117393823428E-16
3.965097414459929E-16
3.9098193035437145E-16
3.8992671587800653E-16
3.882383678444111E-16
3.8238313984884137E-16
3.783233107934629E-16
3.6606359716107126E-16
3.659221375058039E-16
3.658049837520272E-16
3.606436321736704E-16
3.5874568579491423E-16
3.5537929924840473E-16
3.5494336429350203E-16
3.546972563807264E-16
3.4470269655741714E-16
3.4458138778647757E-16
3.371560052614206E-16
3.324838326383766E-16
3.3247117659454323E-16
3.32300150426908E-16
3.285308024094911E-16
3.2838132338802623E-16
3.2496714554014475E-16
3.228533900499411E-16
3.126561491730993E-16
3.1069630268311407E-16
3.0547970118136707E-16
2.9289650833174E-16
% Data (w (m) @ lambda=1)
1.1961063189456327E-15
1.1104840450614043E-15
1.1102481796647584E-15
1.1078166165911594E-15
1.089604641547823E-15
1.0873609726531021E-15
1.0768132109349799E-15
1.0226472153161481E-15
1.0178583297476194E-15
1.0136871589840568E-15
9.986726902490505E-16
9.892165199954165E-16
9.497362510574006E-16
9.30310629951534E-16
8.909374273496152E-16
8.83482081132261E-16
8.68375627940452E-16
8.677369513203483E-16
8.663587309059703E-16
8.644107124287459E-16
8.479356371359429E-16
8.219985676000904E-16
8.042072642993459E-16
7.668874552912417E-16
7.609234973491135E-16
7.486342036189111E-16
7.356264689277553E-16
6.823767943610924E-16
6.698145185470933E-16
6.563092119867268E-16
5.942992674657684E-16
5.88627957442845E-16
5.816917980335387E-16
5.462141354743902E-16
5.387483453219979E-16
5.28906089811925E-16
4.758306792062641E-16
4.716800134979598E-16
4.1317534903846157E-16
4.0561458804416716E-16
4.0455002054430104E-16
3.9932068360578343E-16
3.937296355830859E-16
3.921647742865733E-16
2.7113375230205803E-16
2.696061950748281E-16
2.5725763711967314E-16
1.9404599442284298E-16
1.6159630899315398E-16
1.3838171205329963E-16
1.203362841748031E-16
1.15579694816844E-16
6.021120416553563E-17
5.0147392513537667E-17
-7.806386125540256E-18
-4.5314922798110386E-17
-6.64263760989186E-17
-1.2085869249522568E-16
-1.3650803370134257E-16
-1.4345283908566214E-16
-1.9690134529098402E-16
-2.4519721176182235E-16
-2.750359400010722E-16
-2.8465743356279906E-16
-2.9692537637097337E-16
-3.1458601097342633E-16
-3.6681335065551297E-16
-4.1384752247599547E-16
-4.3818687218364745E-16
-4.468316771235568E-16
-5.186868094471584E-16
-5.312001236589233E-16
-5.505820897969714E-16
-6.127473854929662E-16
-6.521808270673409E-16
-7.584240046025342E-16
-7.5956027195345E-16
-7.604956984900338E-16
-8.005500538894597E-16
-8.146723824837717E-16
-8.390556784470305E-16
-8.42154501756449E-16
-8.438982359916878E-16
-9.116537453497583E-16
-9.12441185192113E-16
-9.592620123876668E-16
-9.874535109468475E-16
-9.875286584094984E-16
-9.885435321508695E-16
-1.0106236445819786E-15
-1.0114882356688007E-15
-1.0310998464176824E-15
-1.0430079406580748E-15
-1.0981940004977285E-15
-1.1084084124737152E-15
-1.1350417770343826E-15
-1.196302882671821E-15
% Data (freq (Hz) @ lambda=2)
1704766.3344140055
1704766.3344140055
1704766.3344140055
1704766.3344140055
1704766.3344140055
1704766.3344140055
1704766.3344140055
1704766.3344140055
1704766.3344140055
1704766.3344140055
1704766.3344140055
1704766.3344140055
1704766.3344140055
1704766.3344140055
1704766.3344140055
1704766.3344140055
1704766.3344140055
1704766.3344140055
1704766.3344140055
1704766.3344140055
1704766.3344140055
1704766.3344140055
1704766.3344140055
1704766.3344140055
1704766.3344140055
1704766.3344140055
1704766.3344140055
1704766.3344140055
1704766.3344140055
1704766.3344140055
1704766.3344140055
1704766.3344140055
1704766.3344140055
1704766.3344140055
1704766.3344140055
1704766.3344140055
1704766.3344140055
1704766.3344140055
1704766.3344140055
1704766.3344140055
1704766.3344140055
1704766.3344140055
1704766.3344140055
1704766.3344140055
1704766.3344140055
1704766.3344140055
1704766.3344140055
1704766.3344140055
1704766.3344140055
1704766.3344140055
1704766.3344140055
1704766.3344140055
1704766.3344140055
1704766.3344140055
1704766.3344140055
1704766.3344140055
1704766.3344140055
1704766.3344140055
1704766.3344140055
1704766.3344140055
1704766.3344140055
1704766.3344140055
1704766.3344140055
1704766.3344140055
1704766.3344140055
1704766.3344140055
1704766.3344140055
1704766.3344140055
1704766.3344140055
1704766.3344140055
1704766.3344140055
1704766.3344140055
1704766.3344140055
1704766.3344140055
1704766.3344140055
1704766.3344140055
1704766.3344140055
1704766.3344140055
1704766.3344140055
1704766.3344140055
1704766.3344140055
1704766.3344140055
1704766.3344140055
1704766.3344140055
1704766.3344140055
1704766.3344140055
1704766.3344140055
1704766.3344140055
1704766.3344140055
1704766.3344140055
1704766.3344140055
1704766.3344140055
1704766.3344140055
1704766.3344140055
1704766.3344140055
1704766.3344140055
1704766.3344140055
% Data (bottom-r_bottom (m) @ lambda=2)
-1.0000000000000001E-7
-9.294131667134618E-8
-9.292187484708909E-8
-9.272144775906353E-8
-9.122033491741085E-8
-9.103540772345964E-8
-9.01660599718194E-8
-8.570213362024603E-8
-8.530750639094452E-8
-8.496381722947714E-8
-8.372797889704625E-8
-8.294945948779294E-8
-7.969752758297775E-8
-7.809102910542144E-8
-7.483360386224137E-8
-7.421708081138118E-8
-7.296772412791616E-8
-7.29148997283623E-8
-7.280090729528517E-8
-7.264020720457327E-8
-7.128051971484367E-8
-6.913778957686151E-8
-6.766648180303001E-8
-6.457616634675634E-8
-6.408180493724056E-8
-6.306268427778134E-8
-6.198333473675938E-8
-5.755780953170847E-8
-5.651212548893929E-8
-5.5387238510351116E-8
-5.0217390352075244E-8
-4.9744163351254115E-8
-4.9165279011200724E-8
-4.620166714451416E-8
-4.557744223155356E-8
-4.475320219992291E-8
-4.029944023113534E-8
-3.9950501848524084E-8
-3.502217724378078E-8
-3.4383910522548525E-8
-3.429401637531787E-8
-3.385259658601298E-8
-3.338050997353552E-8
-3.3248370100036695E-8
-2.3016327311124804E-8
-2.2887035446003722E-8
-2.1841719466266178E-8
-1.6486927693143995E-8
-1.3735524469032231E-8
-1.1766110607093252E-8
-1.0234616874254464E-8
-9.830842346519418E-9
-5.1280338431617604E-9
-4.272709458705337E-9
6.545427063373811E-10
3.843048096549625E-9
5.63791145120325E-9
1.0258429937703185E-8
1.1586143316181793E-8
1.2175252331638005E-8
1.6707118145613285E-8
2.079901549708932E-8
2.332566213246588E-8
2.4140141817388037E-8
2.5178481391265774E-8
2.6672920287915582E-8
3.109011179034618E-8
3.506518094875002E-8
3.7113858271879125E-8
3.784094579561519E-8
4.3874239990118484E-8
4.4922668409903554E-8
4.6545277510893464E-8
5.1738910760977724E-8
5.50250035665598E-8
6.384643098971103E-8
6.394052468151404E-8
6.401807899326592E-8
6.733634884865223E-8
6.850588662347087E-8
7.052467559315404E-8
7.078119324274509E-8
7.092553333498009E-8
7.65305692114506E-8
7.659566908841328E-8
8.046480450981147E-8
8.279288044020008E-8
8.279908458475446E-8
8.288287132781261E-8
8.470539688236792E-8
8.47767466831985E-8
8.639179345588441E-8
8.737248635787896E-8
9.191776442893311E-8
9.275912804776058E-8
9.495303665722179E-8
9.999999999999998E-8
% Data (solid.eZZ (1) @ lambda=2)
-8.436550570626491E-9
-7.84792937528527E-9
-7.846329449701157E-9
-7.829842434182606E-9
-7.706750253183092E-9
-7.691633350389364E-9
-7.620706530111757E-9
-7.260060427043273E-9
-7.22846055342073E-9
-7.177501819881316E-9
-7.076844815189036E-9
-7.013259257258813E-9
-6.74616614896954E-9
-6.6454965454415495E-9
-6.375370845209955E-9
-6.3266994688272994E-9
-6.222367659108001E-9
-6.2179563766650116E-9
-6.208437048042012E-9
-6.197194169473476E-9
-6.084530779387188E-9
-5.906984657054962E-9
-5.7850724361128205E-9
-5.529009614052828E-9
-5.488046942303181E-9
-5.403602840795349E-9
-5.314168188128361E-9
-4.947470195920973E-9
-4.860825058632144E-9
-4.771506161437949E-9
-4.340799554303634E-9
-4.30456289554251E-9
-4.255974780730841E-9
-4.0072267948680725E-9
-3.954833061542295E-9
-3.876552258471584E-9
-3.504095251722406E-9
-3.4749144049600286E-9