% Model:              nanowire_2.mph
% Version:            COMSOL 6.1.0.357
% Date:               Jun 12 2023, 14:48
% Dimension:          3
% Nodes:              97
% Elements:           96
% Expressions:        900
% Description:        Frequency, , Strain tensor, ZZ-component, Strain tensor, XY-component, Strain tensor, XZ-component, Strain tensor, YZ-component, Displacement field, X-component, Displacement field, Y-component, Displacement field, Z-component
% Length unit:        m
% Coordinates
-1.0E-7|0|-1.8999999999999998E-6
-9.942293577735596E-8|0|-1.8999999999999998E-6
-9.920579310835321E-8|0|-1.8999999999999998E-6
-9.911118133961852E-8|0|-1.8999999999999998E-6
-9.484864687420065E-8|0|-1.8999999999999998E-6
-9.338097696697878E-8|0|-1.8999999999999998E-6
-9.068261233979578E-8|0|-1.8999999999999998E-6
-9.056185921597067E-8|0|-1.8999999999999998E-6
-8.662227608887496E-8|0|-1.8999999999999998E-6
-8.612165732595058E-8|0|-1.8999999999999998E-6
-8.271857286849806E-8|0|-1.8999999999999998E-6
-8.263095160329268E-8|0|-1.8999999999999998E-6
-7.746829737217138E-8|0|-1.8999999999999998E-6
-7.692727397262309E-8|0|-1.8999999999999998E-6
-7.687341039058199E-8|0|-1.8999999999999998E-6
-7.567425528342459E-8|0|-1.8999999999999998E-6
-7.417611654865539E-8|0|-1.8999999999999998E-6
-7.197291550740666E-8|0|-1.8999999999999998E-6
-7.062735932946794E-8|0|-1.8999999999999998E-6
-6.863337987335053E-8|0|-1.8999999999999998E-6
-6.666875736942158E-8|0|-1.8999999999999998E-6
-6.53324770358595E-8|0|-1.8999999999999998E-6
-6.314582857771591E-8|0|-1.8999999999999998E-6
-5.96763261976012E-8|0|-1.8999999999999998E-6
-5.751092986805622E-8|0|-1.8999999999999998E-6
-5.439709327200977E-8|0|-1.8999999999999998E-6
-5.3992517679002046E-8|0|-1.8999999999999998E-6
-4.812267893569447E-8|0|-1.8999999999999998E-6
-4.653365875451153E-8|0|-1.8999999999999998E-6
-4.6385981922914705E-8|0|-1.8999999999999998E-6
-4.598541345024617E-8|0|-1.8999999999999998E-6
-4.564090234615933E-8|0|-1.8999999999999998E-6
-3.777346981358684E-8|0|-1.8999999999999998E-6
-3.5378878882071666E-8|0|-1.8999999999999998E-6
-3.4386636972888284E-8|0|-1.8999999999999998E-6
-3.219592743429967E-8|0|-1.8999999999999998E-6
-2.5233506127207693E-8|0|-1.8999999999999998E-6
-2.3301861513038715E-8|0|-1.8999999999999998E-6
-1.9314119975651067E-8|0|-1.8999999999999998E-6
-1.5624017563288415E-8|0|-1.8999999999999998E-6
-1.417999580394141E-8|0|-1.8999999999999998E-6
-9.410271583227454E-9|0|-1.8999999999999998E-6
-7.79684661349904E-9|0|-1.8999999999999998E-6
-1.6094308327092325E-9|0|-1.8999999999999998E-6
1.7607040542033025E-9|0|-1.8999999999999998E-6
2.435787542789305E-9|0|-1.8999999999999998E-6
6.013079279876333E-9|0|-1.8999999999999998E-6
1.062380161098699E-8|0|-1.8999999999999998E-6
1.1500142485356578E-8|0|-1.8999999999999998E-6
1.5860542468471177E-8|0|-1.8999999999999998E-6
1.691929086411166E-8|0|-1.8999999999999998E-6
1.866131640624029E-8|0|-1.8999999999999998E-6
2.9136676622508317E-8|0|-1.8999999999999998E-6
3.0088352568239005E-8|0|-1.8999999999999998E-6
3.044256853859446E-8|0|-1.8999999999999998E-6
3.108241411994171E-8|0|-1.8999999999999998E-6
3.132496162400597E-8|0|-1.8999999999999998E-6
3.214193976981981E-8|0|-1.8999999999999998E-6
3.372129468531044E-8|0|-1.8999999999999998E-6
4.2430174435943796E-8|0|-1.8999999999999998E-6
4.4839794263450385E-8|0|-1.8999999999999998E-6
4.7190682042956495E-8|0|-1.8999999999999998E-6
4.7287464763463506E-8|0|-1.8999999999999998E-6
4.741828595996406E-8|0|-1.8999999999999998E-6
5.00389765832569E-8|0|-1.8999999999999998E-6
5.255503113137373E-8|0|-1.8999999999999998E-6
5.303493284523581E-8|0|-1.8999999999999998E-6
5.473215409342374E-8|0|-1.8999999999999998E-6
5.534472924308785E-8|0|-1.8999999999999998E-6
5.679740931727561E-8|0|-1.8999999999999998E-6
5.833378602340789E-8|0|-1.8999999999999998E-6
6.139848133755501E-8|0|-1.8999999999999998E-6
6.28992022741251E-8|0|-1.8999999999999998E-6
6.529962117748935E-8|0|-1.8999999999999998E-6
6.54648708279596E-8|0|-1.8999999999999998E-6
6.605180652029238E-8|0|-1.8999999999999998E-6
6.651423455108607E-8|0|-1.8999999999999998E-6
6.677914359056394E-8|0|-1.8999999999999998E-6
6.929881132478301E-8|0|-1.8999999999999998E-6
7.078556958358047E-8|0|-1.8999999999999998E-6
7.20714898020831E-8|0|-1.8999999999999998E-6
7.359509296552756E-8|0|-1.8999999999999998E-6
7.503205280663789E-8|0|-1.8999999999999998E-6
7.580552957378717E-8|0|-1.8999999999999998E-6
7.583961058313874E-8|0|-1.8999999999999998E-6
7.587651820128017E-8|0|-1.8999999999999998E-6
7.860184796938449E-8|0|-1.8999999999999998E-6
8.188088174351763E-8|0|-1.8999999999999998E-6
8.349005169368605E-8|0|-1.8999999999999998E-6
8.636953207230817E-8|0|-1.8999999999999998E-6
8.85629328682983E-8|0|-1.8999999999999998E-6
9.072747814613602E-8|0|-1.8999999999999998E-6
9.146809358689228E-8|0|-1.8999999999999998E-6
9.325207099690039E-8|0|-1.8999999999999998E-6
9.801874835739671E-8|0|-1.8999999999999998E-6
9.898129239103963E-8|0|-1.8999999999999998E-6
9.999999999999998E-8|0|-1.8999999999999998E-6
% Elements (lines)
4|5
2|3
3|4
5|6
1|2
6|7
7|8
8|9
95|96
94|95
90|91
89|90
93|94
96|97
91|92
92|93
88|89
87|88
16|17
14|15
15|16
12|13
13|14
10|11
11|12
9|10
17|18
20|21
21|22
22|23
18|19
19|20
23|24
24|25
26|27
27|28
28|29
29|30
30|31
25|26
31|32
32|33
36|37
37|38
38|39
35|36
39|40
33|34
34|35
41|42
42|43
43|44
44|45
40|41
56|57
57|58
53|54
51|52
50|51
55|56
54|55
49|50
48|49
47|48
52|53
45|46
46|47
59|60
58|59
63|64
62|63
61|62
60|61
82|83
81|82
83|84
84|85
86|87
85|86
73|74
72|73
71|72
70|71
68|69
69|70
65|66
64|65
66|67
67|68
80|81
76|77
74|75
75|76
79|80
78|79
77|78
% Data (freq (Hz) @ lambda=1)
1.674830693289267E7
1.674830693289267E7
1.674830693289267E7
1.674830693289267E7
1.674830693289267E7
1.674830693289267E7
1.674830693289267E7
1.674830693289267E7
1.674830693289267E7
1.674830693289267E7
1.674830693289267E7
1.674830693289267E7
1.674830693289267E7
1.674830693289267E7
1.674830693289267E7
1.674830693289267E7
1.674830693289267E7
1.674830693289267E7
1.674830693289267E7
1.674830693289267E7
1.674830693289267E7
1.674830693289267E7
1.674830693289267E7
1.674830693289267E7
1.674830693289267E7
1.674830693289267E7
1.674830693289267E7
1.674830693289267E7
1.674830693289267E7
1.674830693289267E7
1.674830693289267E7
1.674830693289267E7
1.674830693289267E7
1.674830693289267E7
1.674830693289267E7
1.674830693289267E7
1.674830693289267E7
1.674830693289267E7
1.674830693289267E7
1.674830693289267E7
1.674830693289267E7
1.674830693289267E7
1.674830693289267E7
1.674830693289267E7
1.674830693289267E7
1.674830693289267E7
1.674830693289267E7
1.674830693289267E7
1.674830693289267E7
1.674830693289267E7
1.674830693289267E7
1.674830693289267E7
1.674830693289267E7
1.674830693289267E7
1.674830693289267E7
1.674830693289267E7
1.674830693289267E7
1.674830693289267E7
1.674830693289267E7
1.674830693289267E7
1.674830693289267E7
1.674830693289267E7
1.674830693289267E7
1.674830693289267E7
1.674830693289267E7
1.674830693289267E7
1.674830693289267E7
1.674830693289267E7
1.674830693289267E7
1.674830693289267E7
1.674830693289267E7
1.674830693289267E7
1.674830693289267E7
1.674830693289267E7
1.674830693289267E7
1.674830693289267E7
1.674830693289267E7
1.674830693289267E7
1.674830693289267E7
1.674830693289267E7
1.674830693289267E7
1.674830693289267E7
1.674830693289267E7
1.674830693289267E7
1.674830693289267E7
1.674830693289267E7
1.674830693289267E7
1.674830693289267E7
1.674830693289267E7
1.674830693289267E7
1.674830693289267E7
1.674830693289267E7
1.674830693289267E7
1.674830693289267E7
1.674830693289267E7
1.674830693289267E7
1.674830693289267E7
% Data (bottom-r_bottom (m) @ lambda=1)
-1.0000000000000004E-7
-9.942293577735592E-8
-9.920579310835323E-8
-9.911118133961852E-8
-9.484864687420067E-8
-9.338097696697877E-8
-9.068261233979583E-8
-9.056185921597068E-8
-8.6622276088875E-8
-8.61216573259506E-8
-8.271857286849806E-8
-8.263095160329268E-8
-7.746829737217138E-8
-7.692727397262307E-8
-7.687341039058199E-8
-7.567425528342459E-8
-7.417611654865539E-8
-7.197291550740666E-8
-7.062735932946794E-8
-6.863337987335053E-8
-6.666875736942158E-8
-6.53324770358595E-8
-6.314582857771591E-8
-5.96763261976012E-8
-5.751092986805621E-8
-5.439709327200977E-8
-5.399251767900205E-8
-4.8122678935694463E-8
-4.653365875451153E-8
-4.63859819229147E-8
-4.598541345024617E-8
-4.564090234615934E-8
-3.777346981358684E-8
-3.5378878882071666E-8
-3.4386636972888284E-8
-3.219592743429967E-8
-2.5233506127207693E-8
-2.3301861513038715E-8
-1.9314119975651067E-8
-1.5624017563288415E-8
-1.417999580394141E-8
-9.410271583227454E-9
-7.79684661349904E-9
-1.6094308327092325E-9
1.7607040542033025E-9
2.435787542789305E-9
6.013079279876333E-9
1.062380161098699E-8
1.1500142485356578E-8
1.5860542468471177E-8
1.691929086411166E-8
1.866131640624029E-8
2.9136676622508317E-8
3.0088352568239005E-8
3.044256853859446E-8
3.108241411994171E-8
3.132496162400597E-8
3.214193976981981E-8
3.372129468531044E-8
4.2430174435943796E-8
4.4839794263450385E-8
4.7190682042956495E-8
4.7287464763463506E-8
4.741828595996406E-8
5.00389765832569E-8
5.255503113137373E-8
5.303493284523581E-8
5.473215409342374E-8
5.534472924308785E-8
5.679740931727561E-8
5.833378602340789E-8
6.139848133755501E-8
6.28992022741251E-8
6.529962117748935E-8
6.54648708279596E-8
6.605180652029238E-8
6.651423455108607E-8
6.677914359056394E-8
6.929881132478301E-8
7.078556958358047E-8
7.20714898020831E-8
7.359509296552756E-8
7.503205280663792E-8
7.580552957378717E-8
7.583961058313874E-8
7.587651820128017E-8
7.860184796938444E-8
8.188088174351758E-8
8.349005169368602E-8
8.636953207230814E-8
8.856293286829832E-8
9.072747814613602E-8
9.146809358689226E-8
9.325207099690036E-8
9.801874835739674E-8
9.898129239103963E-8
9.999999999999998E-8
% Data (solid.eZZ (1) @ lambda=1)
4.100414793359378E-8
4.0763124355020796E-8
4.0672720523082066E-8
4.063337994058317E-8
3.889149246375297E-8
3.830518863261298E-8
3.7211258292613366E-8
3.716646353630237E-8
3.5694767227510646E-8
3.543889077900388E-8
3.4113080682343135E-8
3.4078944251248354E-8
3.206762211370943E-8
3.1856844422288867E-8
3.189575186707055E-8
3.142329962637643E-8
3.08422181346771E-8
2.993778653394465E-8
2.9385424990397596E-8
2.8566880519166907E-8
2.776038731096816E-8
2.721183357552426E-8
2.6314196942184178E-8
2.488993854150105E-8
2.40393848837426E-8
2.2783689207161807E-8
2.2620538763225568E-8
2.025344887111112E-8
1.9612655525036222E-8
1.9553102894945527E-8
1.9391568375137E-8
1.9252639728564776E-8
1.6079993794129612E-8
1.5013642529323518E-8
1.4753010510198212E-8
1.3810426234674064E-8
1.0814744366293206E-8
9.983626499161656E-9
8.267843369638463E-9
6.680123752912113E-9
6.055693508510436E-9
4.020778229130842E-9
3.3324400839662434E-9
6.926927255080933E-10
-7.251084123080551E-10
-1.017229078711762E-9
-2.5589061674949053E-9
-4.50580754630422E-9
-4.8758470182335895E-9
-6.717048489422817E-9
-7.164110481722006E-9
-7.899689787161173E-9
-1.232296488029907E-8
-1.27248149761986E-8
-1.2874384503825097E-8
-1.3144562613694067E-8
-1.3354359950253646E-8
-1.3700910473455845E-8
-1.433102095414985E-8
-1.8068023921717868E-8
-1.899509520302254E-8
-1.996679276586672E-8
-2.0006309099388206E-8
-2.0059723324629156E-8
-2.110183371353248E-8
-2.2151115216361343E-8
-2.2351250778568538E-8
-2.3059050561075128E-8
-2.3314515520734397E-8
-2.3859383536898804E-8
-2.446826219913856E-8
-2.5682826033386945E-8
-2.627757402234481E-8
-2.7228879678608297E-8
-2.7342958325476247E-8
-2.7570933627849253E-8
-2.7750548143584178E-8
-2.785344309300575E-8
-2.8832122735582783E-8
-2.9409603655609476E-8
-2.990907583709415E-8
-3.053455977084151E-8
-3.111605381878398E-8
-3.1429056397875834E-8
-3.144369956027825E-8
-3.145854894489597E-8
-3.253894765883291E-8
-3.383685544407483E-8
-3.447317280622717E-8
-3.555063103877056E-8
-3.642443725933755E-8
-3.729042043854935E-8
-3.758757021542405E-8
-3.830512954140159E-8
-4.0235031573572836E-8
-4.06270087461065E-8
-4.104270055117625E-8
% Data (solid.eXY (1) @ lambda=1)
-3.5095224938378995E-10
-1.7616854992916788E-10
-1.8507885557615106E-10
-1.8889264778468022E-10
-3.194464690867843E-10
-3.467444993008299E-10
-3.208094796308566E-10
-3.2314552688812524E-10
-4.082256916601833E-10
-3.1217435784189214E-10
-4.710648833615769E-10
-4.751559334219673E-10
-7.162010365086445E-10
-7.414615004634657E-10
-6.5963030257683E-10
-6.780769268089742E-10
-7.895952720105961E-10
-8.012977584643074E-10
-8.084447925524554E-10
-8.190359810718565E-10
-8.294712376863868E-10
-8.365690023519237E-10
-8.481835683771161E-10
-8.666121202177575E-10
-8.719529993007158E-10
-8.526947181411591E-10
-8.501925218054697E-10
-8.138890738264297E-10
-8.040613913282254E-10
-8.031480479795674E-10
-8.006706346560744E-10
-7.985399217877553E-10
-7.498818682763402E-10
-7.812534866143601E-10
-7.432557949860622E-10
-7.042002175605987E-10
-5.800754170617012E-10
-5.456384027253319E-10
-4.745456605689157E-10
-4.0875917544365945E-10
-4.0439532268397217E-10
-2.770429882364927E-10
-2.3396430551972E-10
-6.875939902675407E-11
1.523505706890112E-10
1.789904063274775E-10
1.9843140196157004E-10
2.5584870805691794E-10
2.667617773362978E-10
3.2106182026868974E-10
3.3424640965507364E-10
3.5593984651709923E-10
4.863894639095857E-10
4.982406805206232E-10
5.026517305325701E-10
5.106197249073346E-10
5.544394639721805E-10
5.671565980092142E-10
6.284137719592285E-10
8.601230298818147E-10
9.155314251736861E-10
8.374952746486763E-10
8.377513384391963E-10
8.38097459846999E-10
9.942802256763369E-10
9.896529647622526E-10
9.887703803823524E-10
9.856490309068048E-10
9.845224476024197E-10
9.266209553641138E-10
9.126116247924591E-10
8.846664407852308E-10
8.70982234553676E-10
8.490942029314058E-10
8.283328030853699E-10
8.183451228287906E-10
8.104761460847398E-10
8.059682812233745E-10
7.630919729484042E-10
7.377923254715427E-10
7.159102689779286E-10
7.565485169320064E-10
7.383340400980752E-10
7.285296779620606E-10
8.327428350505069E-10
8.312351820737105E-10
6.212585568681583E-10
5.004719697390559E-10
4.430428134319836E-10
3.919737476416421E-10
3.7984282756650226E-10
3.6415513517619366E-10
3.5791614707755885E-10
3.410170145657192E-10
2.8236597436645005E-10
2.680390760421036E-10
2.713299893118162E-10
% Data (solid.eXZ (1) @ lambda=1)
-3.7881362016933654E-11
2.725585628216594E-11
2.827350319301459E-11
2.8714755923867876E-11
4.729609986106388E-11
5.3135995658904086E-11
1.8332311615347862E-10
1.8615720942556058E-10
2.8362617621287736E-10
1.817950032842565E-10
2.2853053886833933E-10
2.2973386685184764E-10
3.0063407915739247E-10
3.0806410878420557E-10
3.6810156780033667E-10
3.9235649285942023E-10
4.822279667950517E-10
5.220057018004775E-10
5.462990713473054E-10
5.822994112739963E-10
6.177697255502794E-10
6.418956241887925E-10
6.813745102684579E-10
7.440147068248154E-10
7.445734651811944E-10
8.188722308143021E-10
8.285257454540574E-10
9.68585045176754E-10
1.0065004059820708E-9
1.0100240996512373E-9
1.0195820010223697E-9
1.027802326331997E-9
1.2155258975091294E-9
1.0835735941181252E-9
1.3295488026461982E-9
1.3576337964058113E-9
1.4468923473534928E-9
1.4716561172550499E-9
1.5227791411976747E-9
1.5700864183140778E-9
1.5822638166628572E-9
1.639764070938279E-9
1.659214324605125E-9
1.733805215868436E-9
1.727465429372769E-9
1.7279858611949634E-9
1.7249362475770268E-9
1.6703679109240094E-9
1.6599963334528054E-9
1.6083905855605754E-9
1.5958601977525023E-9
1.575243160027295E-9
1.4512662770591E-9
1.4400031018640393E-9
1.4358109222162098E-9
1.4282382889970448E-9
1.380274465771567E-9
1.3701725222795593E-9
1.3842981669727098E-9
1.2407857871793115E-9
1.288063627127979E-9
1.1999903398715012E-9
1.1975993507287386E-9
1.1943674508726386E-9
9.99310307621284E-10
9.342556014549965E-10
9.218473390795484E-10
8.779642564640747E-10
8.621256108369148E-10
7.948790154228612E-10
7.597206887552804E-10
6.895884363191509E-10
6.552460535465945E-10
6.003150515294809E-10
6.451125144656597E-10
6.263294989710594E-10
6.115309563350696E-10
6.030533826278168E-10
5.224194073704483E-10
4.748404242269899E-10
4.336886256491626E-10
4.1071192019202005E-10
3.799515422978742E-10
3.6339405963960756E-10
3.5616059169366893E-10
3.5546202033435326E-10
3.0147056789328725E-10
2.44754406055916E-10
2.1633522471142628E-10
1.819101789105926E-10
1.491894117146619E-10
1.1647271525877178E-10
1.051794959892751E-10
7.776615888861139E-11
3.0226357126104194E-12
-1.2341841301551642E-11
-6.41569816083308E-11
% Data (solid.eYZ (1) @ lambda=1)
1.1406696039340816E-9
9.974536410482932E-10
1.0091934667482127E-9
1.0143063551759661E-9
1.2431918361658434E-9
1.321329593617112E-9
1.4491133318904066E-9
1.4524609646073868E-9
1.5540467930464454E-9
1.5265676131012295E-9
1.7076383654324614E-9
1.7123005031516976E-9
1.9869941516176216E-9
2.015780834760438E-9
2.0583515979237937E-9
2.1166020480959243E-9
2.2345977184141313E-9
2.332012910852454E-9
2.3915070793628686E-9
2.4796714768913324E-9
2.566537848005745E-9
2.6256218822850968E-9
2.7223051973149064E-9
2.8757102818697402E-9
3.020634582465932E-9
3.162936502815168E-9
3.1814255538734416E-9
3.4496764076188998E-9
3.5222944196055086E-9
3.529043231265758E-9
3.5473491574548427E-9
3.5630932693184568E-9
3.922633894868584E-9
3.875238271771795E-9
3.965920238307351E-9
4.037662820930427E-9
4.265672092393753E-9
4.3289306718126705E-9
4.45952346455232E-9
4.5803690045673676E-9
4.608176051634361E-9
4.6940913521811536E-9
4.7231533869591945E-9
4.834605047855237E-9
4.832058308511057E-9
4.831099353833661E-9
4.795480898616749E-9
4.706729586979016E-9
4.6898609931976865E-9
4.605928110240218E-9
4.5855483731709995E-9
4.5520163058141436E-9
4.3503771932615456E-9
4.332058482575516E-9
4.325240216430945E-9
4.31292389579564E-9
4.383515901181992E-9
4.364898696306101E-9
4.2959305412578104E-9
3.905908739893403E-9
3.799797620043026E-9
3.6801727534653857E-9
3.676314733209613E-9
3.671099847501266E-9
3.3770064556992784E-9
3.2249056816507472E-9
3.1958946166083776E-9
3.093294032780004E-9
3.0562625803035247E-9
3.008634156087294E-9
2.926433424351944E-9
2.7624630931416294E-9
2.6821700513217313E-9
2.553740487439265E-9
2.560303182774442E-9
2.5280403942262008E-9
2.50262156560289E-9
2.4880599970412426E-9
2.3495584399151002E-9
2.267834039861507E-9
2.197149341961224E-9
2.167515301348373E-9
2.0954415939189867E-9
2.0566462590571616E-9
2.058426746968089E-9
2.0570390338632778E-9
1.9468384267669283E-9
1.7502736320052924E-9
1.6580075117482822E-9
1.5441327817290822E-9
1.4846737633063822E-9
1.4250644642047022E-9
1.4044520779983232E-9
1.3543402658442048E-9
1.217160761277037E-9
1.188863627135178E-9
1.0220881836218363E-9
% Data (u (m) @ lambda=1)
2.8418108665925774E-15
2.8344471129153478E-15
2.8316869140204634E-15
2.830486076887899E-15
2.777485504779654E-15
2.759711052649801E-15
2.7276165903554577E-15
2.7261710968966035E-15
2.680065005001648E-15
2.674458566668971E-15
2.6371470255978067E-15
2.636204753966927E-15
2.582317602764676E-15
2.576856216470667E-15
2.576311419633553E-15
2.5642754866245738E-15
2.5494881686506876E-15
2.528224517592493E-15
2.5155308026121456E-15
2.4971280126627767E-15
2.4794727037944004E-15
2.4677343420916773E-15
2.4489980658215696E-15
2.420472118262015E-15
2.4032393458917194E-15
2.379529651939241E-15
2.3765418319637507E-15
2.335592170834182E-15
2.325278910358301E-15
2.3243371488768703E-15
2.321796960255271E-15
2.319628980805513E-15
2.274329134899272E-15
2.262225963357074E-15
2.2572512309889885E-15
2.247064918908859E-15
2.2189206801913296E-15
2.2122525882826856E-15
2.2000533977303297E-15
2.1906450657530714E-15
2.1875419162539296E-15
2.179480800935548E-15
2.1775146103931857E-15
2.173539022448959E-15
2.173752440631432E-15
2.174030962495056E-15
2.1766649306009567E-15
2.1821955708167766E-15
2.1835737977386078E-15
2.1919844454649224E-15
2.1944168574002304E-15
2.198750892972511E-15
2.233517197093781E-15
2.2374153065145112E-15
2.2388976522126213E-15
2.2416185781391767E-15
2.2426603306643325E-15
2.246227649989392E-15
2.253273567358174E-15
2.298659641610471E-15
2.3131919293775924E-15
2.3279736117647725E-15
2.3285976848352516E-15
2.3294431966239945E-15
2.3472365952754746E-15
2.3650910315305615E-15
2.3685823343299012E-15
2.381150245692506E-15
2.3857708193129968E-15
2.396907277487204E-15
2.408835238789593E-15
2.43349537257227E-15
2.4459921063029025E-15
2.466556384668449E-15
2.4679898117076588E-15
2.4731079007566553E-15
2.477169766219035E-15
2.479508376183989E-15
2.502178258150358E-15
2.515916813655504E-15
2.528016147984373E-15
2.542720151413183E-15
2.556835579683175E-15
2.5645330434072947E-15
2.5648738116650186E-15
2.5652471441115266E-15
2.593227010943534E-15
2.6274145370163934E-15
2.6446557764658557E-15
2.6762686751299308E-15
2.701070826442463E-15
2.7261675579229276E-15
2.7348976040357114E-15
2.7562284237804495E-15
2.81534755988298E-15
2.827666409612205E-15
2.840845310487568E-15
% Data (v (m) @ lambda=1)
4.5408561681499485E-15
4.561284998340676E-15
4.568931119773336E-15
4.57225565040373E-15
4.717750001923429E-15
4.765966873175262E-15
4.852215681227796E-15
4.8560063431344746E-15
4.976624348683194E-15
4.9915697653856315E-15
5.090173632737214E-15
5.092643572262701E-15
5.232069080359604E-15
5.245985392492221E-15
5.247372833147949E-15
5.2779670922704756E-15
5.315398492115418E-15
5.3685323300738374E-15
5.400103523069511E-15
5.445662906497714E-15
5.489119699583563E-15
5.51786569078619E-15
5.563486505040222E-15
5.632259031046224E-15
5.672807566335522E-15
5.728351906846943E-15
5.735329315090695E-15
5.830368526036816E-15
5.8541034028381034E-15
5.856266093165407E-15
5.862095387993056E-15
5.867065739175869E-15
5.969706680196987E-15
5.9973073314879574E-15
6.007932558580683E-15
6.030274535458837E-15
6.0910604398361314E-15
6.105169510983082E-15
6.130511003432324E-15
6.14941726818551E-15
6.155620423054333E-15
6.171880000050996E-15
6.175910175090069E-15
6.184476976622022E-15
6.184546010438586E-15
6.184323611417142E-15
6.181173677289375E-15
6.170466436850571E-15
6.167650024332735E-15
6.149926123516253E-15
6.144690304759545E-15
6.135282697548938E-15
6.057916212722976E-15
6.0491205104653355E-15
6.045771567997137E-15
6.0396187841674105E-15
6.037252454566196E-15
6.029141513733442E-15
6.012895515645847E-15
5.910110887120484E-15
5.877817292372744E-15
5.844005156778508E-15
5.842571844339066E-15
5.840629243094706E-15
5.8007947119497645E-15
5.760217241549044E-15
5.752218085079905E-15
5.723261133822377E-15
5.712554295292892E-15
5.686622100287003E-15
5.658368848392371E-15
5.599390917172847E-15
5.569237754143121E-15
5.519267773761875E-15
5.515733258924027E-15
5.5030945129627E-15
5.493043623019414E-15
5.487248800012586E-15
5.430783773991723E-15
5.396321628896679E-15
5.365829827891116E-15
5.3291306944457106E-15
5.293697679643193E-15
5.274295145611724E-15
5.2734349187079335E-15
5.272510032885389E-15
5.2025374173304434E-15
5.113687135780653E-15
5.0683191869486486E-15
4.984289226161215E-15
4.918071862936932E-15
4.850811282954531E-15
4.8273535520409125E-15
4.7699051980952365E-15
4.609701958313199E-15
4.576137694303387E-15
4.540160502090724E-15
% Data (w (m) @ lambda=1)
4.085370354692641E-15
4.0610779793395906E-15
4.051937560073473E-15
4.0479550537818226E-15
3.868583412809049E-15
3.806843764437457E-15
3.69335891386624E-15
3.688285751902487E-15
3.5229118111428295E-15
3.501939692057838E-15
3.3594360279814642E-15
3.3557682747080718E-15
3.13978566228308E-15
3.117165503122442E-15
3.114921261113863E-15
3.0649763763980416E-15
3.002627928623867E-15
2.9113045714405564E-15
2.8555936671429312E-15
2.7731232800383593E-15
2.69196938815305E-15
2.636828841013469E-15
2.5466998587193208E-15
2.4039525098734145E-15
2.314787009456728E-15
2.1868685197454025E-15
2.170274379567639E-15
1.9301912767468233E-15
1.865415820693738E-15
1.8594005648454E-15
1.843088410302381E-15
1.82906375839174E-15
1.509974013865648E-15
1.4135238887516943E-15
1.373189183789773E-15
1.2850427924068278E-15
1.0053674097856506E-15
9.279007642393862E-16
7.681497090143328E-16
6.205302036845788E-16
5.628476530990585E-16
3.7263810748340485E-16
3.0840855444701973E-16
6.26132869809758E-17
-7.091685356238891E-17
-9.7697192458622E-17
-2.396646098214187E-16
-4.228395819172499E-16
-4.577084582908912E-16
-6.314595390712418E-16
-6.737119442325066E-16
-7.432868467501331E-16
-1.1630888908613516E-15
-1.2013486345018923E-15
-1.2155941520471457E-15
-1.2413339326384446E-15
-1.251101235478863E-15
-1.284009847857256E-15
-1.3477128967151913E-15
-1.6997386425260984E-15
-1.797001391718787E-15
-1.8921135422828255E-15
-1.896032973147132E-15
-1.9013313449891636E-15
-2.0082043883303425E-15
-2.1111100636605383E-15
-2.130771206236236E-15
-2.2003905339115953E-15
-2.2255509332988856E-15
-2.2852866796209085E-15
-2.348476416984203E-15
-2.474725807399807E-15
-2.536645474515606E-15
-2.6358203405423835E-15
-2.6426453619075833E-15
-2.6668943633690027E-15
-2.6860079659476716E-15
-2.696960896333679E-15
-2.8012631876613287E-15
-2.8629132822654192E-15
-2.916298465699338E-15
-2.979650860577111E-15
-3.0394697487148637E-15
-3.071696446450155E-15
-3.073116869917642E-15
-3.07465580794455E-15
-3.188367283670002E-15
-3.325551587870494E-15
-3.392944840652489E-15
-3.513545202242155E-15
-3.605514197350757E-15
-3.696364428274974E-15
-3.7274705725701795E-15
-3.802442929513577E-15
-4.003079362469341E-15
-4.0436509449022956E-15
-4.0866109539756004E-15
% Data (freq (Hz) @ lambda=2)
1.6748431176400827E7
1.6748431176400827E7
1.6748431176400827E7
1.6748431176400827E7
1.6748431176400827E7
1.6748431176400827E7
1.6748431176400827E7
1.6748431176400827E7
1.6748431176400827E7
1.6748431176400827E7
1.6748431176400827E7
1.6748431176400827E7
1.6748431176400827E7
1.6748431176400827E7
1.6748431176400827E7
1.6748431176400827E7
1.6748431176400827E7
1.6748431176400827E7
1.6748431176400827E7
1.6748431176400827E7
1.6748431176400827E7
1.6748431176400827E7
1.6748431176400827E7
1.6748431176400827E7
1.6748431176400827E7
1.6748431176400827E7
1.6748431176400827E7
1.6748431176400827E7
1.6748431176400827E7
1.6748431176400827E7
1.6748431176400827E7
1.6748431176400827E7
1.6748431176400827E7
1.6748431176400827E7
1.6748431176400827E7
1.6748431176400827E7
1.6748431176400827E7
1.6748431176400827E7
1.6748431176400827E7
1.6748431176400827E7
1.6748431176400827E7
1.6748431176400827E7
1.6748431176400827E7
1.6748431176400827E7
1.6748431176400827E7
1.6748431176400827E7
1.6748431176400827E7
1.6748431176400827E7
1.6748431176400827E7
1.6748431176400827E7
1.6748431176400827E7
1.6748431176400827E7
1.6748431176400827E7
1.6748431176400827E7
1.6748431176400827E7
1.6748431176400827E7
1.6748431176400827E7
1.6748431176400827E7
1.6748431176400827E7
1.6748431176400827E7
1.6748431176400827E7
1.6748431176400827E7
1.6748431176400827E7
1.6748431176400827E7
1.6748431176400827E7
1.6748431176400827E7
1.6748431176400827E7
1.6748431176400827E7
1.6748431176400827E7
1.6748431176400827E7
1.6748431176400827E7
1.6748431176400827E7
1.6748431176400827E7
1.6748431176400827E7
1.6748431176400827E7
1.6748431176400827E7
1.6748431176400827E7
1.6748431176400827E7
1.6748431176400827E7
1.6748431176400827E7
1.6748431176400827E7
1.6748431176400827E7
1.6748431176400827E7
1.6748431176400827E7
1.6748431176400827E7
1.6748431176400827E7
1.6748431176400827E7
1.6748431176400827E7
1.6748431176400827E7
1.6748431176400827E7
1.6748431176400827E7
1.6748431176400827E7
1.6748431176400827E7
1.6748431176400827E7
1.6748431176400827E7
1.6748431176400827E7
1.6748431176400827E7
% Data (bottom-r_bottom (m) @ lambda=2)
-1.0000000000000004E-7
-9.942293577735592E-8
-9.920579310835323E-8
-9.911118133961852E-8
-9.484864687420067E-8
-9.338097696697877E-8
-9.068261233979583E-8
-9.056185921597068E-8
-8.6622276088875E-8
-8.61216573259506E-8
-8.271857286849806E-8
-8.263095160329268E-8
-7.746829737217138E-8
-7.692727397262307E-8
-7.687341039058199E-8
-7.567425528342459E-8
-7.417611654865539E-8
-7.197291550740666E-8
-7.062735932946794E-8
-6.863337987335053E-8
-6.666875736942158E-8
-6.53324770358595E-8
-6.314582857771591E-8
-5.96763261976012E-8
-5.751092986805621E-8
-5.439709327200977E-8
-5.399251767900205E-8
-4.8122678935694463E-8
-4.653365875451153E-8
-4.63859819229147E-8
-4.598541345024617E-8
-4.564090234615934E-8
-3.777346981358684E-8
-3.5378878882071666E-8
-3.4386636972888284E-8
-3.219592743429967E-8
-2.5233506127207693E-8
-2.3301861513038715E-8
-1.9314119975651067E-8
-1.5624017563288415E-8
-1.417999580394141E-8
-9.410271583227454E-9
-7.79684661349904E-9
-1.6094308327092325E-9
1.7607040542033025E-9
2.435787542789305E-9
6.013079279876333E-9
1.062380161098699E-8
1.1500142485356578E-8
1.5860542468471177E-8
1.691929086411166E-8
1.866131640624029E-8
2.9136676622508317E-8
3.0088352568239005E-8
3.044256853859446E-8
3.108241411994171E-8
3.132496162400597E-8
3.214193976981981E-8
3.372129468531044E-8
4.2430174435943796E-8
4.4839794263450385E-8
4.7190682042956495E-8
4.7287464763463506E-8
4.741828595996406E-8
5.00389765832569E-8
5.255503113137373E-8
5.303493284523581E-8
5.473215409342374E-8
5.534472924308785E-8
5.679740931727561E-8
5.833378602340789E-8
6.139848133755501E-8
6.28992022741251E-8
6.529962117748935E-8
6.54648708279596E-8
6.605180652029238E-8
6.651423455108607E-8
6.677914359056394E-8
6.929881132478301E-8
7.078556958358047E-8
7.20714898020831E-8
7.359509296552756E-8
7.503205280663792E-8
7.580552957378717E-8
7.583961058313874E-8
7.587651820128017E-8
7.860184796938444E-8
8.188088174351758E-8
8.349005169368602E-8
8.636953207230814E-8
8.856293286829832E-8
9.072747814613602E-8
9.146809358689226E-8
9.325207099690036E-8
9.801874835739674E-8
9.898129239103963E-8
9.999999999999998E-8
% Data (solid.eZZ (1) @ lambda=2)
1.166296151682084E-7
1.159475911657611E-7
1.1569152907022185E-7
1.1558005768580928E-7
1.1061841784888163E-7
1.0893670223081946E-7
1.0588824383790078E-7
1.0575581626208624E-7
1.0141537412676575E-7
1.0096770199505268E-7
9.713655278024249E-8
9.703790987390572E-8
9.12258593793661E-8
9.061678211481733E-8
9.061481258064203E-8
8.926083997400426E-8
8.75764817398941E-8
8.506129155962135E-8
8.352519493366891E-8
8.124885362218813E-8
7.900602641880937E-8
7.748051916361932E-8
7.498422553146214E-8
7.102341662046434E-8
6.848272150053402E-8
6.487818649264351E-8
6.440985527379088E-8
5.761500956230185E-8
5.5775581353836835E-8
5.560463265665066E-8
5.514094002595056E-8
5.474213864476549E-8
4.563490545793737E-8
4.261524152909413E-8
4.1476448084660835E-8
3.8841773807928866E-8